 vasp.5.3.4 04Mar13 (build Aug 27 2015 11:06:17) gamma-only                     
  
 executed on           IFC91_ompi date 2015.11.04  14:24:32
 running on   32 total cores
 distrk:  each k-point on   32 cores,    1 groups
 distr:  one band on NCORES_PER_BAND=   1 cores,   32 groups


--------------------------------------------------------------------------------------------------------


 INCAR:
 POTCAR:    PAW_PBE C_GW_new 19Mar2012            
 POTCAR:    PAW_PBE N_GW_new 19Mar2012            

 ----------------------------------------------------------------------------- 
|                                                                             |
|           W    W    AA    RRRRR   N    N  II  N    N   GGGG   !!!           |
|           W    W   A  A   R    R  NN   N  II  NN   N  G    G  !!!           |
|           W    W  A    A  R    R  N N  N  II  N N  N  G       !!!           |
|           W WW W  AAAAAA  RRRRR   N  N N  II  N  N N  G  GGG   !            |
|           WW  WW  A    A  R   R   N   NN  II  N   NN  G    G                |
|           W    W  A    A  R    R  N    N  II  N    N   GGGG   !!!           |
|                                                                             |
|      For optimal performance we recommend to set                            |
|        NCORE= 4 - approx SQRT( number of cores)                             |
|      NCORE specifies how many cores store one orbital (NPAR=cpu/NCORE).     |
|      This setting can  greatly improve the performance of VASP for DFT.     |
|      The default, NPAR=number of cores might be grossly inefficient         |
|      on modern multi-core architectures or massively parallel machines.     |
|      Do your own testing !!!!                                               |
|      Unfortunately you need to use the default for GW and RPA calculations. |
|      (for HF NCORE is supported but not extensively tested yet)             |
|                                                                             |
 ----------------------------------------------------------------------------- 

 POTCAR:    PAW_PBE C_GW_new 19Mar2012            
   VRHFIN =C: s2p2                                                              
   LEXCH  = PE                                                                  
   EATOM  =   147.1560 eV,   10.8157 Ry                                         
                                                                                
   TITEL  = PAW_PBE C_GW_new 19Mar2012                                          
   LULTRA =        F    use ultrasoft PP ?                                      
   IUNSCR =        1    unscreen: 0-lin 1-nonlin 2-no                           
   RPACOR =    0.800    partial core radius                                     
   POMASS =   12.011; ZVAL   =    4.000    mass and valenz                      
   RCORE  =    1.600    outmost cutoff radius                                   
   RWIGS  =    1.600; RWIGS  =    0.847    wigner-seitz radius (au A)           
   ENMAX  =  413.992; ENMIN  =  310.494 eV                                      
   ICORE  =        3    local potential                                         
   LCOR   =        T    correct aug charges                                     
   LPAW   =        T    paw PP                                                  
   EAUG   = 1213.930                                                            
   DEXC   =    0.000                                                            
   RMAX   =    1.630    core radius for proj-oper                               
   RAUG   =    1.300    factor for augmentation sphere                          
   RDEP   =    1.601    radius for radial grids                                 
   RDEPT  =    1.200    core radius for aug-charge                              
                                                                                
   Atomic configuration                                                         
    5 entries                                                                   
     n  l   j            E        occ.                                          
     1  0  0.50      -273.3789   2.0000                                         
     2  0  0.50       -13.7508   2.0000                                         
     2  1  0.50        -5.2854   2.0000                                         
     3  2  1.50        -5.4423   0.0000                                         
     4  3  2.50        -5.4423   0.0000                                         
   Description                                                                  
     l       E           TYP  RCUT    TYP  RCUT                                 
     0    -13.7508457     23  1.200                                             
     0     -7.5219285     23  1.200                                             
     0    272.1165200     23  1.300                                             
     1     -5.2854382     23  1.500                                             
     1    108.8466080     23  1.500                                             
     2     27.2116520     23  1.500                                             
     2    190.4815640     23  1.600                                             
     3     54.4233040     23  1.400                                             
  local pseudopotential read in
  partial core-charges read in
  partial kinetic energy density read in
  kinetic energy density of atom read in
  atomic valenz-charges read in
  non local Contribution for L=           0  read in
    real space projection operators read in
  non local Contribution for L=           0  read in
    real space projection operators read in
  non local Contribution for L=           0  read in
    real space projection operators read in
  non local Contribution for L=           1  read in
    real space projection operators read in
  non local Contribution for L=           1  read in
    real space projection operators read in
  non local Contribution for L=           2  read in
    real space projection operators read in
  non local Contribution for L=           2  read in
    real space projection operators read in
    PAW grid and wavefunctions read in
 
   number of l-projection  operators is LMAX  =           7
   number of lm-projection operators is LMMAX =          19
 
 POTCAR:    PAW_PBE N_GW_new 19Mar2012            
   VRHFIN =N: s2p3                                                              
   LEXCH  = PE                                                                  
   EATOM  =   264.5486 eV,   19.4438 Ry                                         
                                                                                
   TITEL  = PAW_PBE N_GW_new 19Mar2012                                          
   LULTRA =        F    use ultrasoft PP ?                                      
   IUNSCR =        1    unscreen: 0-lin 1-nonlin 2-no                           
   RPACOR =    0.800    partial core radius                                     
   POMASS =   14.001; ZVAL   =    5.000    mass and valenz                      
   RCORE  =    1.600    outmost cutoff radius                                   
   RWIGS  =    1.600; RWIGS  =    0.847    wigner-seitz radius (au A)           
   ENMAX  =  420.902; ENMIN  =  315.677 eV                                      
   ICORE  =        3    local potential                                         
   LCOR   =        T    correct aug charges                                     
   LPAW   =        T    paw PP                                                  
   EAUG   = 1173.595                                                            
   DEXC   =    0.000                                                            
   RMAX   =    1.638    core radius for proj-oper                               
   RAUG   =    1.300    factor for augmentation sphere                          
   RDEP   =    1.609    radius for radial grids                                 
   RDEPT  =    1.200    core radius for aug-charge                              
                                                                                
   Atomic configuration                                                         
    5 entries                                                                   
     n  l   j            E        occ.                                          
     1  0  0.50      -384.7179   2.0000                                         
     2  0  0.50       -18.5828   2.0000                                         
     2  1  0.50        -7.0898   3.0000                                         
     3  2  1.50        -8.1635   0.0000                                         
     4  3  2.50        -8.1635   0.0000                                         
   Description                                                                  
     l       E           TYP  RCUT    TYP  RCUT                                 
     0    -18.5828120     23  1.150                                             
     0    -16.4356426     23  1.150                                             
     0    258.5106940     23  1.300                                             
     1     -7.0897854     23  1.500                                             
     1     -3.1993695     23  1.500                                             
     1    136.0582600     23  1.500                                             
     2     27.2116520     23  1.500                                             
     2    190.4815640     23  1.600                                             
     3     54.4233040     23  1.400                                             
  local pseudopotential read in
  partial core-charges read in
  partial kinetic energy density read in
  kinetic energy density of atom read in
  atomic valenz-charges read in
  non local Contribution for L=           0  read in
    real space projection operators read in
  non local Contribution for L=           0  read in
    real space projection operators read in
  non local Contribution for L=           0  read in
    real space projection operators read in
  non local Contribution for L=           1  read in
    real space projection operators read in
  non local Contribution for L=           1  read in
    real space projection operators read in
  non local Contribution for L=           1  read in
    real space projection operators read in
  non local Contribution for L=           2  read in
    real space projection operators read in
  non local Contribution for L=           2  read in
    real space projection operators read in
    PAW grid and wavefunctions read in
 
   number of l-projection  operators is LMAX  =           8
   number of lm-projection operators is LMMAX =          22
 

 ----------------------------------------------------------------------------- 
|                                                                             |
|  ADVICE TO THIS USER RUNNING 'VASP/VAMP'   (HEAR YOUR MASTER'S VOICE ...):  |
|                                                                             |
|      You have a (more or less) 'large supercell' and for larger cells       |
|      it might be more efficient to use real space projection opertators     |
|      So try LREAL= Auto  in the INCAR   file.                               |
|      Mind: At the moment your POTCAR file does not contain real space       |
|       projectors, and has to be modified,  BUT if you                       |
|      want to do an extremely  accurate calculation you might also keep the  |
|      reciprocal projection scheme          (i.e. LREAL=.FALSE.)             |
|                                                                             |
 ----------------------------------------------------------------------------- 

  PAW_PBE C_GW_new 19Mar2012            :
 energy of atom  1       EATOM= -147.1560
 kinetic energy error for atom=    0.0288 (will be added to EATOM!!)
  PAW_PBE N_GW_new 19Mar2012            :
 energy of atom  2       EATOM= -264.5486
 kinetic energy error for atom=    0.0732 (will be added to EATOM!!)
 
 
 POSCAR: C                                       
  positions in direct lattice
  velocities in cartesian coordinates
 exchange correlation table for  LEXCH =        8
   RHO(1)=    0.500       N(1)  =     2000
   RHO(2)=  100.500       N(2)  =     4000
 


--------------------------------------------------------------------------------------------------------


 ion  position               nearest neighbor table
   1  0.997  0.997  0.263-   2 1.49  38 1.50  74 1.50
   2  0.062  0.062  0.313-   1 1.49   5 1.55   9 1.55  15 1.55
   3  0.997  0.263  0.997-   4 1.49  22 1.50  76 1.50
   4  0.062  0.313  0.062-   3 1.49   5 1.55  11 1.55  31 1.55
   5  0.000  0.250  0.250-  78 1.54   6 1.55   2 1.55   4 1.55
   6  0.062  0.313  0.313-  13 1.55   5 1.55  19 1.55  33 1.55
   7  0.263  0.997  0.997-   8 1.49  26 1.50  44 1.50
   8  0.313  0.062  0.062-   7 1.49   9 1.55  11 1.55  63 1.55
   9  0.250  0.000  0.250-  46 1.54  10 1.55   2 1.55   8 1.55
  10  0.313  0.062  0.313-  13 1.55   9 1.55  23 1.55  65 1.55
  11  0.250  0.250  0.000-  30 1.54  12 1.55   4 1.55   8 1.55
  12  0.313  0.313  0.062-  13 1.55  11 1.55  39 1.55  67 1.55
  13  0.250  0.250  0.250-  14 1.54  10 1.55  12 1.55   6 1.55
  14  0.313  0.313  0.313-  13 1.54  27 1.55  41 1.55  69 1.55
  15  0.000  0.000  0.501-  16 1.53  52 1.55  88 1.55   2 1.55
  16  0.062  0.062  0.563-  15 1.53  17 1.53  19 1.54  23 1.54
  17  1.000  1.000  0.749-  16 1.53  18 1.53  54 1.55  90 1.55
  18  0.059  0.059  0.816- 127 1.47  17 1.53  25 1.56  21 1.56
  19  0.000  0.250  0.500-  16 1.54  20 1.54  92 1.55   6 1.55
  20  0.062  0.312  0.564-  27 1.54  19 1.54  47 1.55  21 1.56
  21  0.999  0.248  0.753-  94 1.54  22 1.55  18 1.56  20 1.56
  22  0.062  0.311  0.816-   3 1.50  29 1.54  21 1.55  49 1.56
  23  0.250  0.000  0.500-  16 1.54  24 1.54  60 1.55  10 1.55
  24  0.312  0.062  0.564-  27 1.54  23 1.54  79 1.55  25 1.56
  25  0.248  0.999  0.753-  62 1.54  26 1.55  18 1.56  24 1.56
  26  0.311  0.062  0.816-   7 1.50  29 1.54  25 1.55  81 1.56
  27  0.250  0.250  0.501-  20 1.54  24 1.54  28 1.54  14 1.55
  28  0.312  0.312  0.563-  27 1.54  55 1.55  83 1.55  29 1.55
  29  0.249  0.249  0.751-  30 1.54  26 1.54  22 1.54  28 1.55
  30  0.312  0.312  0.813-  11 1.54  29 1.54  57 1.55  85 1.55
  31  0.000  0.501  0.000-  32 1.53  50 1.55 104 1.55   4 1.55
  32  0.062  0.563  0.062-  31 1.53  35 1.53  33 1.54  39 1.54
  33  0.000  0.500  0.250-  32 1.54  34 1.54 106 1.55   6 1.55
  34  0.062  0.564  0.312-  41 1.54  33 1.54  47 1.55  37 1.56
  35  1.000  0.749  1.000-  32 1.53  36 1.53  54 1.55 108 1.55
  36  0.059  0.816  0.059- 127 1.47  35 1.53  43 1.56  37 1.56
  37  0.999  0.753  0.248- 110 1.54  38 1.55  36 1.56  34 1.56
  38  0.062  0.816  0.311-   1 1.50  45 1.54  37 1.55  51 1.56
  39  0.250  0.500  0.000-  32 1.54  40 1.54  58 1.55  12 1.55
  40  0.312  0.564  0.062-  41 1.54  39 1.54  95 1.55  43 1.56
  41  0.250  0.501  0.250-  34 1.54  40 1.54  42 1.54  14 1.55
  42  0.312  0.563  0.312-  41 1.54  55 1.55  97 1.55  45 1.55
  43  0.248  0.753  0.999-  62 1.54  44 1.55  36 1.56  40 1.56
  44  0.311  0.816  0.062-   7 1.50  45 1.54  43 1.55  99 1.56
  45  0.249  0.751  0.249-  46 1.54  44 1.54  38 1.54  42 1.55
  46  0.312  0.813  0.312-   9 1.54  45 1.54  59 1.55 101 1.55
  47  1.000  0.500  0.500-  48 1.54 120 1.54  20 1.55  34 1.55
  48  0.062  0.563  0.563-  49 1.54  51 1.54  47 1.54  55 1.54
  49  0.000  0.500  0.749-  48 1.54 122 1.55  50 1.55  22 1.56
  50  0.063  0.562  0.813-  53 1.54  57 1.54  49 1.55  31 1.55
  51  0.000  0.749  0.500-  48 1.54 124 1.55  52 1.55  38 1.56
  52  0.063  0.813  0.562-  53 1.54  59 1.54  51 1.55  15 1.55
  53  0.000  0.750  0.750-  54 1.54  52 1.54  50 1.54 126 1.55
  54  0.062  0.812  0.812-  53 1.54  61 1.55  17 1.55  35 1.55
  55  0.250  0.500  0.500-  48 1.54  56 1.54  28 1.55  42 1.55
  56  0.312  0.563  0.563-  55 1.54 111 1.54  59 1.54  57 1.54
  57  0.250  0.500  0.750-  50 1.54  56 1.54  58 1.54  30 1.55
  58  0.312  0.563  0.812-  61 1.54 113 1.54  57 1.54  39 1.55
  59  0.250  0.750  0.500-  52 1.54  56 1.54  60 1.54  46 1.55
  60  0.312  0.812  0.563-  61 1.54 115 1.54  59 1.54  23 1.55
  61  0.250  0.750  0.750-  58 1.54  60 1.54  54 1.55  62 1.55
  62  0.312  0.813  0.813-  25 1.54  43 1.54 117 1.55  61 1.55
  63  0.501  0.000  0.000-  64 1.53  82 1.55 100 1.55   8 1.55
  64  0.563  0.062  0.062-  63 1.53  71 1.53  67 1.54  65 1.54
  65  0.500  0.000  0.250-  64 1.54  66 1.54 102 1.55  10 1.55
  66  0.564  0.062  0.312-  69 1.54  65 1.54  79 1.55  73 1.56
  67  0.500  0.250  0.000-  64 1.54  68 1.54  86 1.55  12 1.55
  68  0.564  0.312  0.062-  69 1.54  67 1.54  95 1.55  75 1.56
  69  0.501  0.250  0.250-  66 1.54  68 1.54  70 1.54  14 1.55
  70  0.563  0.312  0.312-  69 1.54  83 1.55  97 1.55  77 1.55
  71  0.749  1.000  1.000-  64 1.53  72 1.53  90 1.55 108 1.55
  72  0.816  0.059  0.059- 127 1.47  71 1.53  75 1.56  73 1.56
  73  0.753  0.999  0.248- 110 1.54  74 1.55  72 1.56  66 1.56
  74  0.816  0.062  0.311-   1 1.50  77 1.54  73 1.55  87 1.56
  75  0.753  0.248  0.999-  94 1.54  76 1.55  72 1.56  68 1.56
  76  0.816  0.311  0.062-   3 1.50  77 1.54  75 1.55 103 1.56
  77  0.751  0.249  0.249-  78 1.54  76 1.54  74 1.54  70 1.55
  78  0.813  0.312  0.312-   5 1.54  77 1.54  91 1.55 105 1.55
  79  0.500  1.000  0.500-  80 1.54 116 1.54  24 1.55  66 1.55
  80  0.563  0.062  0.563-  81 1.54  87 1.54  79 1.54  83 1.54
  81  0.500  0.000  0.749-  80 1.54 118 1.55  82 1.55  26 1.56
  82  0.562  0.063  0.813-  89 1.54  85 1.54  81 1.55  63 1.55
  83  0.500  0.250  0.500-  80 1.54  84 1.54  28 1.55  70 1.55
  84  0.563  0.312  0.563-  83 1.54 111 1.54  91 1.54  85 1.54
  85  0.500  0.250  0.750-  82 1.54  84 1.54  86 1.54  30 1.55
  86  0.563  0.312  0.812-  93 1.54 113 1.54  85 1.54  67 1.55
  87  0.749  0.000  0.500-  80 1.54 124 1.55  88 1.55  74 1.56
  88  0.813  0.063  0.562-  89 1.54  91 1.54  87 1.55  15 1.55
  89  0.750  0.000  0.750-  90 1.54  88 1.54  82 1.54 126 1.55
  90  0.812  0.062  0.812-  89 1.54  93 1.55  17 1.55  71 1.55
  91  0.750  0.250  0.500-  88 1.54  84 1.54  92 1.54  78 1.55
  92  0.812  0.312  0.563-  93 1.54 119 1.54  91 1.54  19 1.55
  93  0.750  0.250  0.750-  86 1.54  92 1.54  90 1.55  94 1.55
  94  0.813  0.312  0.813-  21 1.54  75 1.54 121 1.55  93 1.55
  95  0.500  0.500  1.000-  96 1.54 114 1.54  40 1.55  68 1.55
  96  0.563  0.563  0.062-  99 1.54 103 1.54  95 1.54  97 1.54
  97  0.500  0.500  0.250-  96 1.54  98 1.54  42 1.55  70 1.55
  98  0.563  0.563  0.312-  97 1.54 111 1.54 105 1.54 101 1.54
  99  0.500  0.749  0.000-  96 1.54 118 1.55 100 1.55  44 1.56
 100  0.562  0.813  0.063- 107 1.54 101 1.54  99 1.55  63 1.55
 101  0.500  0.750  0.250- 100 1.54  98 1.54 102 1.54  46 1.55
 102  0.563  0.812  0.312- 109 1.54 115 1.54 101 1.54  65 1.55
 103  0.749  0.500  0.000-  96 1.54 122 1.55 104 1.55  76 1.56
 104  0.813  0.562  0.063- 107 1.54 105 1.54 103 1.55  31 1.55
 105  0.750  0.500  0.250- 104 1.54  98 1.54 106 1.54  78 1.55
 106  0.812  0.563  0.312- 109 1.54 119 1.54 105 1.54  33 1.55
 107  0.750  0.750  0.000- 108 1.54 104 1.54 100 1.54 126 1.55
 108  0.812  0.812  0.062- 107 1.54 109 1.55  35 1.55  71 1.55
 109  0.750  0.750  0.250- 102 1.54 106 1.54 108 1.55 110 1.55
 110  0.813  0.813  0.312-  37 1.54  73 1.54 123 1.55 109 1.55
 111  0.500  0.500  0.500-  56 1.54  84 1.54  98 1.54 112 1.54
 112  0.562  0.562  0.562- 111 1.54 113 1.55 115 1.55 119 1.55
 113  0.500  0.500  0.750-  58 1.54  86 1.54 114 1.55 112 1.55
 114  0.563  0.563  0.813-  95 1.54 117 1.55 121 1.55 113 1.55
 115  0.500  0.750  0.500-  60 1.54 102 1.54 116 1.55 112 1.55
 116  0.563  0.813  0.563-  79 1.54 117 1.55 123 1.55 115 1.55
 117  0.500  0.750  0.750- 118 1.54 116 1.55 114 1.55  62 1.55
 118  0.562  0.813  0.813- 117 1.54 125 1.54  81 1.55  99 1.55
 119  0.750  0.500  0.500-  92 1.54 106 1.54 120 1.55 112 1.55
 120  0.813  0.563  0.563-  47 1.54 121 1.55 123 1.55 119 1.55
 121  0.750  0.500  0.750- 122 1.54 120 1.55 114 1.55  94 1.55
 122  0.813  0.562  0.813- 121 1.54 125 1.54  49 1.55 103 1.55
 123  0.750  0.750  0.500- 124 1.54 120 1.55 116 1.55 110 1.55
 124  0.813  0.813  0.562- 123 1.54 125 1.54  51 1.55  87 1.55
 125  0.750  0.750  0.750- 126 1.54 122 1.54 124 1.54 118 1.54
 126  0.812  0.812  0.812- 125 1.54  89 1.55 107 1.55  53 1.55
 127  0.994  0.994  0.994-  18 1.47  36 1.47  72 1.47
 
  LATTYP: Found a face centered cubic cell.
 ALAT       =    14.2680000000
  
  Lattice vectors:
  
 A1 = (   7.1340000000,   7.1340000000,   0.0000000000)
 A2 = (   0.0000000000,   7.1340000000,   7.1340000000)
 A3 = (   7.1340000000,   0.0000000000,   7.1340000000)


Analysis of symmetry for initial positions (statically):
=====================================================================
 Subroutine PRICEL returns:
 Original cell was already a primitive cell.
 

 Routine SETGRP: Setting up the symmetry group for a 
 face centered cubic supercell.


 Subroutine GETGRP returns: Found  6 space group operations
 (whereof  6 operations were pure point group operations)
 out of a pool of 48 trial point group operations.


The static configuration has the point symmetry C_3v.


Analysis of symmetry for dynamics (positions and initial velocities):
=====================================================================
 Subroutine PRICEL returns:
 Original cell was already a primitive cell.
 

 Routine SETGRP: Setting up the symmetry group for a 
 face centered cubic supercell.


 Subroutine GETGRP returns: Found  6 space group operations
 (whereof  6 operations were pure point group operations)
 out of a pool of 48 trial point group operations.


The dynamic configuration has the point symmetry C_3v.


Analysis of magnetic symmetry:
=====================================================================
 Subroutine PRICEL returns:
 Original cell was already a primitive cell.
 

 Subroutine MAGSYM returns: Found  6 space group operations
 (whereof  6 operations were pure point group operations)
 out of a pool of  6 trial space group operations
 (whereof  6 operations were pure point group operations)
 and found also     1 'primitive' translations


The magnetic configuration has the point symmetry C_3v.
 
 
 KPOINTS: Automatically generated mesh            

Automatic generation of k-mesh.
Space group operators:
 irot       det(A)        alpha          n_x          n_y          n_z        tau_x        tau_y        tau_z
    1     1.000000     0.000000     1.000000     0.000000     0.000000     0.000000     0.000000     0.000000
    2     1.000000   120.000000    -0.577350    -0.577350    -0.577350     0.000000     0.000000     0.000000
    3     1.000000   120.000000     0.577350     0.577350     0.577350     0.000000     0.000000     0.000000
    4    -1.000000   180.000000     0.707107    -0.707107     0.000000     0.000000     0.000000     0.000000
    5    -1.000000   180.000000     0.707107     0.000000    -0.707107     0.000000     0.000000     0.000000
    6    -1.000000   180.000000     0.000000    -0.707107     0.707107     0.000000     0.000000     0.000000
 
 Subroutine IBZKPT returns following result:
 ===========================================
 
 Found      1 irreducible k-points:
 
 Following reciprocal coordinates:
            Coordinates               Weight
  0.000000  0.000000  0.000000      1.000000
 
 Following cartesian coordinates:
            Coordinates               Weight
  0.000000  0.000000  0.000000      1.000000
 


--------------------------------------------------------------------------------------------------------




 Dimension of arrays:
   k-points           NKPTS =      1   k-points in BZ     NKDIM =      1   number of bands    NBANDS=    384
   number of dos      NEDOS =    301   number of ions     NIONS =    127
   non local maximal  LDIM  =      8   non local SUM 2l+1 LMDIM =     22
   total plane-waves  NPLWV = 125000
   max r-space proj   IRMAX =      1   max aug-charges    IRDMAX=   1963
   dimension x,y,z NGX =    50 NGY =   50 NGZ =   50
   dimension x,y,z NGXF=   100 NGYF=  100 NGZF=  100
   support grid    NGXF=   100 NGYF=  100 NGZF=  100
   ions per type =             126   1
 NGX,Y,Z   is equivalent  to a cutoff of   8.24,  8.24,  8.24 a.u.
 NGXF,Y,Z  is equivalent  to a cutoff of  16.48, 16.48, 16.48 a.u.


 I would recommend the setting:
   dimension x,y,z NGX =    49 NGY =   49 NGZ =   49
 SYSTEM =  unknown system                          
 POSCAR =  C                                       

 Startparameter for this run:
   NWRITE =      2    write-flag & timer
   PREC   = normal    normal or accurate (medium, high low for compatibility)
   ISTART =      1    job   : 0-new  1-cont  2-samecut
   ICHARG =      0    charge: 1-file 2-atom 10-const
   ISPIN  =      2    spin polarized calculation?
   LNONCOLLINEAR =      F non collinear calculations
   LSORBIT =      F    spin-orbit coupling
   INIWAV =      1    electr: 0-lowe 1-rand  2-diag
   LASPH  =      F    aspherical Exc in radial PAW
   METAGGA=      F    non-selfconsistent MetaGGA calc.

 Electronic Relaxation 1
   ENCUT  =  400.0 eV  29.40 Ry    5.42 a.u.  16.45 16.45 16.45*2*pi/ulx,y,z
   ENINI  =  400.0     initial cutoff
   ENAUG  = 1213.9 eV  augmentation charge cutoff
   NELM   =     60;   NELMIN=  2; NELMDL=  0     # of ELM steps 
   EDIFF  = 0.1E-03   stopping-criterion for ELM
   LREAL  =      F    real-space projection
   NLSPLINE    = F    spline interpolate recip. space projectors
   LCOMPAT=      F    compatible to vasp.4.4
   GGA_COMPAT  = T    GGA compatible to vasp.4.4-vasp.4.6
   LMAXPAW     = -100 max onsite density
   LMAXMIX     =    2 max onsite mixed and CHGCAR
   VOSKOWN=      0    Vosko Wilk Nusair interpolation
   ROPT   =    0.00000   0.00000
 Ionic relaxation
   EDIFFG = 0.1E-02   stopping-criterion for IOM
   NSW    =    100    number of steps for IOM
   NBLOCK =      1;   KBLOCK =    100    inner block; outer block 
   IBRION =      2    ionic relax: 0-MD 1-quasi-New 2-CG
   NFREE  =      1    steps in history (QN), initial steepest desc. (CG)
   ISIF   =      0    stress and relaxation
   IWAVPR =     11    prediction:  0-non 1-charg 2-wave 3-comb
   ISYM   =      2    0-nonsym 1-usesym 2-fastsym
   LCORR  =      T    Harris-Foulkes like correction to forces

   POTIM  = 0.5000    time-step for ionic-motion
   TEIN   =    0.0    initial temperature
   TEBEG  =    0.0;   TEEND  =   0.0 temperature during run
   SMASS  =  -3.00    Nose mass-parameter (am)
   estimated Nose-frequenzy (Omega)   =  0.10E-29 period in steps =****** mass=  -0.233E-26a.u.
   SCALEE = 1.0000    scale energy and forces
   NPACO  =    256;   APACO  = 16.0  distance and # of slots for P.C.
   PSTRESS=    0.0 pullay stress

  Mass of Ions in am
   POMASS =  12.01 14.00
  Ionic Valenz
   ZVAL   =   4.00  5.00
  Atomic Wigner-Seitz radii
   RWIGS  =  -1.00 -1.00
  virtual crystal weights 
   VCA    =   1.00  1.00
   NELECT =     510.0000    total number of electrons
   NUPDOWN=      -1.0000    fix difference up-down

 DOS related values:
   EMIN   =  10.00;   EMAX   =-10.00  energy-range for DOS
   EFERMI =   0.00
   ISMEAR =     1;   SIGMA  =   0.20  broadening in eV -4-tet -1-fermi 0-gaus

 Electronic relaxation 2 (details)
   IALGO  =     38    algorithm
   LDIAG  =      T    sub-space diagonalisation (order eigenvalues)
   LSUBROT=      F    optimize rotation matrix (better conditioning)
   TURBO    =      0    0=normal 1=particle mesh
   IRESTART =      0    0=no restart 2=restart with 2 vectors
   NREBOOT  =      0    no. of reboots
   NMIN     =      0    reboot dimension
   EREF     =   0.00    reference energy to select bands
   IMIX   =      4    mixing-type and parameters
     AMIX     =   0.40;   BMIX     =  1.00
     AMIX_MAG =   1.60;   BMIX_MAG =  1.00
     AMIN     =   0.10
     WC   =   100.;   INIMIX=   1;  MIXPRE=   1;  MAXMIX= -45

 Intra band minimization:
   WEIMIN = 0.0010     energy-eigenvalue tresh-hold
   EBREAK =  0.65E-07  absolut break condition
   DEPER  =   0.30     relativ break condition  

   TIME   =   0.40     timestep for ELM

  volume/ion in A,a.u.               =       5.72        38.59
  Fermi-wavevector in a.u.,A,eV,Ry     =   1.455197  2.749924 28.811674  2.117598
  Thomas-Fermi vector in A             =   2.572260
 
 Write flags
   LWAVE  =      T    write WAVECAR
   LCHARG =      T    write CHGCAR
   LVTOT  =      F    write LOCPOT, total local potential
   LVHAR  =      F    write LOCPOT, Hartree potential only
   LELF   =      F    write electronic localiz. function (ELF)
   LORBIT =      0    0 simple, 1 ext, 2 COOP (PROOUT)


 Dipole corrections
   LMONO  =      F    monopole corrections only (constant potential shift)
   LDIPOL =      F    correct potential (dipole corrections)
   IDIPOL =      0    1-x, 2-y, 3-z, 4-all directions 
   EPSILON=  1.0000000 bulk dielectric constant

 Exchange correlation treatment:
   GGA     =    --    GGA type
   LEXCH   =     8    internal setting for exchange type
   VOSKOWN=      0    Vosko Wilk Nusair interpolation
   LHFCALC =     F    Hartree Fock is set to
   LHFONE  =     F    Hartree Fock one center treatment
   AEXX    =    0.0000 exact exchange contribution

 Linear response parameters
   LEPSILON=     F    determine dielectric tensor
   LRPA    =     F    only Hartree local field effects (RPA)
   LNABLA  =     F    use nabla operator in PAW spheres
   LVEL    =     F    velocity operator in full k-point grid
   LINTERFAST=   F  fast interpolation
   KINTER  =     0    interpolate to denser k-point grid
   CSHIFT  =0.1000    complex shift for real part using Kramers Kronig
   OMEGAMAX=  -1.0    maximum frequency
   DEG_THRESHOLD= 0.2000000E-02 threshold for treating states as degnerate
   RTIME   =    0.100 relaxation time in fs

 Orbital magnetization related:
   ORBITALMAG=     F  switch on orbital magnetization
   LCHIMAG   =     F  perturbation theory with respect to B field
   DQ        =  0.001000  dq finite difference perturbation B field



--------------------------------------------------------------------------------------------------------


 conjugate gradient relaxation of ions
 charge density and potential will be updated during run
 spin polarized calculation
 Variant of blocked Davidson
 Davidson routine will perform the subspace rotation
 perform sub-space diagonalisation
    after iterative eigenvector-optimisation
 modified Broyden-mixing scheme, WC =      100.0
 initial mixing is a Kerker type mixing with AMIX =  0.4000 and BMIX =      1.0000
 Hartree-type preconditioning will be used
 using additional bands          129
 reciprocal scheme for non local part
 use partial core corrections
 calculate Harris-corrections to forces 
   (improved forces if not selfconsistent)
 use gradient corrections 
 use of overlap-Matrix (Vanderbilt PP)
 Methfessel and Paxton  Order N= 1 SIGMA  =   0.20


--------------------------------------------------------------------------------------------------------


  energy-cutoff  :      400.00
  volume of cell :      726.15
      direct lattice vectors                 reciprocal lattice vectors
     7.134000000  7.134000000  0.000000000     0.070086908  0.070086908 -0.070086908
     0.000000000  7.134000000  7.134000000    -0.070086908  0.070086908  0.070086908
     7.134000000  0.000000000  7.134000000     0.070086908 -0.070086908  0.070086908

  length of vectors
    10.088999554 10.088999554 10.088999554     0.121394085  0.121394085  0.121394085


 
 old parameters found on file WAVECAR:
  energy-cutoff  :      400.00
  volume of cell :      726.15
      direct lattice vectors                 reciprocal lattice vectors
     7.134000000  7.134000000  0.000000000     0.070086908  0.070086908 -0.070086908
     0.000000000  7.134000000  7.134000000    -0.070086908  0.070086908  0.070086908
     7.134000000  0.000000000  7.134000000     0.070086908 -0.070086908  0.070086908

  length of vectors

 
 k-points in units of 2pi/SCALE and weight: Automatically generated mesh            
   0.00000000  0.00000000  0.00000000       1.000
 
 k-points in reciprocal lattice and weights: Automatically generated mesh            
   0.00000000  0.00000000  0.00000000       1.000
 
 position of ions in fractional coordinates (direct lattice) 
   0.99671446  0.99671446  0.26303314
   0.06202313  0.06202313  0.31255252
   0.99671446  0.26303314  0.99671446
   0.06202313  0.31255252  0.06202313
   0.00017868  0.24982530  0.24982530
   0.06243538  0.31251017  0.31251017
   0.26303314  0.99671446  0.99671446
   0.31255252  0.06202313  0.06202313
   0.24982530  0.00017868  0.24982530
   0.31251017  0.06243538  0.31251017
   0.24982530  0.24982530  0.00017868
   0.31251017  0.31251017  0.06243538
   0.25003064  0.25003064  0.25003064
   0.31253640  0.31253640  0.31253640
   0.00035913  0.00035913  0.50065238
   0.06241650  0.06241650  0.56260436
   0.99986528  0.99986528  0.74877572
   0.05943311  0.05943311  0.81588375
   0.00006396  0.24990754  0.50024918
   0.06244854  0.31164930  0.56367364
   0.99941911  0.24842779  0.75282946
   0.06205167  0.31086922  0.81567775
   0.24990754  0.00006396  0.50024918
   0.31164930  0.06244854  0.56367364
   0.24842779  0.99941911  0.75282946
   0.31086922  0.06205167  0.81567775
   0.24983546  0.24983546  0.50055732
   0.31225863  0.31225863  0.56322125
   0.24947392  0.24947392  0.75117496
   0.31223694  0.31223694  0.81292907
   0.00035913  0.50065238  0.00035913
   0.06241650  0.56260436  0.06241650
   0.00006396  0.50024918  0.24990754
   0.06244854  0.56367364  0.31164930
   0.99986528  0.74877572  0.99986528
   0.05943311  0.81588375  0.05943311
   0.99941911  0.75282946  0.24842779
   0.06205167  0.81567775  0.31086922
   0.24990754  0.50024918  0.00006396
   0.31164930  0.56367364  0.06244854
   0.24983546  0.50055732  0.24983546
   0.31225863  0.56322125  0.31225863
   0.24842779  0.75282946  0.99941911
   0.31086922  0.81567775  0.06205167
   0.24947392  0.75117496  0.24947392
   0.31223694  0.81292907  0.31223694
   0.99996772  0.50016810  0.50016810
   0.06247074  0.56257366  0.56257366
   0.00018201  0.50023729  0.74934894
   0.06251675  0.56236316  0.81255455
   0.00018201  0.74934894  0.50023729
   0.06251675  0.81255455  0.56236316
   0.00014152  0.74974053  0.74974053
   0.06239853  0.81208862  0.81208862
   0.24992000  0.50001452  0.50001452
   0.31244363  0.56251895  0.56251895
   0.25002753  0.49985702  0.75006053
   0.31247657  0.56252807  0.81248776
   0.25002753  0.75006053  0.49985702
   0.31247657  0.81248776  0.56252807
   0.24999084  0.74996480  0.74996480
   0.31211885  0.81282119  0.81282119
   0.50065238  0.00035913  0.00035913
   0.56260436  0.06241650  0.06241650
   0.50024918  0.00006396  0.24990754
   0.56367364  0.06244854  0.31164930
   0.50024918  0.24990754  0.00006396
   0.56367364  0.31164930  0.06244854
   0.50055732  0.24983546  0.24983546
   0.56322125  0.31225863  0.31225863
   0.74877572  0.99986528  0.99986528
   0.81588375  0.05943311  0.05943311
   0.75282946  0.99941911  0.24842779
   0.81567775  0.06205167  0.31086922
   0.75282946  0.24842779  0.99941911
   0.81567775  0.31086922  0.06205167
   0.75117496  0.24947392  0.24947392
   0.81292907  0.31223694  0.31223694
   0.50016810  0.99996772  0.50016810
   0.56257366  0.06247074  0.56257366
   0.50023729  0.00018201  0.74934894
   0.56236316  0.06251675  0.81255455
   0.50001452  0.24992000  0.50001452
   0.56251895  0.31244363  0.56251895
   0.49985702  0.25002753  0.75006053
   0.56252807  0.31247657  0.81248776
   0.74934894  0.00018201  0.50023729
   0.81255455  0.06251675  0.56236316
   0.74974053  0.00014152  0.74974053
   0.81208862  0.06239853  0.81208862
   0.75006053  0.25002753  0.49985702
   0.81248776  0.31247657  0.56252807
   0.74996480  0.24999084  0.74996480
   0.81282119  0.31211885  0.81282119
   0.50016810  0.50016810  0.99996772
   0.56257366  0.56257366  0.06247074
   0.50001452  0.50001452  0.24992000
   0.56251895  0.56251895  0.31244363
   0.50023729  0.74934894  0.00018201
   0.56236316  0.81255455  0.06251675
   0.49985702  0.75006053  0.25002753
   0.56252807  0.81248776  0.31247657
   0.74934894  0.50023729  0.00018201
   0.81255455  0.56236316  0.06251675
   0.75006053  0.49985702  0.25002753
   0.81248776  0.56252807  0.31247657
   0.74974053  0.74974053  0.00014152
   0.81208862  0.81208862  0.06239853
   0.74996480  0.74996480  0.24999084
   0.81282119  0.81282119  0.31211885
   0.49998396  0.49998396  0.49998396
   0.56249960  0.56249960  0.56249960
   0.49999743  0.49999743  0.75006185
   0.56254874  0.56254874  0.81252067
   0.49999743  0.75006185  0.49999743
   0.56254874  0.81252067  0.56254874
   0.49990998  0.75010543  0.75010543
   0.56239027  0.81256733  0.81256733
   0.75006185  0.49999743  0.49999743
   0.81252067  0.56254874  0.56254874
   0.75010543  0.49990998  0.75010543
   0.81256733  0.56239027  0.81256733
   0.75010543  0.75010543  0.49990998
   0.81256733  0.81256733  0.56239027
   0.74994049  0.74994049  0.74994049
   0.81240578  0.81240578  0.81240578
   0.99383270  0.99383270  0.99383270
 
 position of ions in cartesian coordinates  (Angst):
   8.98703937 14.22112193  8.98703937
   2.67222263  0.88494597  2.67222263
  14.22112193  8.98703937  8.98703937
   0.88494597  2.67222263  2.67222263
   1.78352838  1.78352838  3.56450732
   2.67486155  2.67486155  4.45889510
   8.98703937  8.98703937 14.22112193
   2.67222263  2.67222263  0.88494597
   3.56450732  1.78352838  1.78352838
   4.45889510  2.67486155  2.67486155
   1.78352838  3.56450732  1.78352838
   2.67486155  4.45889510  2.67486155
   3.56743722  3.56743722  3.56743722
   4.45926932  4.45926932  4.45926932
   3.57421614  0.00512412  3.57421614
   4.45889877  0.89055859  4.45889877
  12.47480485 14.26607778 12.47480485
   6.24451051  0.84799168  6.24451051
   3.56923395  1.78329672  5.35161808
   4.46675566  2.66881400  6.24455387
  12.50054129  8.90213979  7.14296924
   6.26172163  2.66041757  8.03678603
   5.35161808  1.78329672  3.56923395
   6.24455387  2.66881400  4.46675566
   7.14296924  8.90213979 12.50054129
   8.03678603  2.66041757  6.26172163
   5.35330203  3.56465228  5.35330203
   6.24567348  4.45530611  6.24567348
   7.13862909  3.55949386  7.13862909
   8.02693433  4.45499663  8.02693433
   0.00512412  3.57421614  3.57421614
   0.89055859  4.45889877  4.45889877
   1.78329672  3.56923395  5.35161808
   2.66881400  4.46675566  6.24455387
  14.26607778 12.47480485 12.47480485
   0.84799168  6.24451051  6.24451051
   8.90213979 12.50054129  7.14296924
   2.66041757  6.26172163  8.03678603
   1.78329672  5.35161808  3.56923395
   2.66881400  6.24455387  4.46675566
   3.56465228  5.35330203  5.35330203
   4.45530611  6.24567348  6.24567348
   8.90213979  7.14296924 12.50054129
   2.66041757  8.03678603  6.26172163
   3.55949386  7.13862909  7.13862909
   4.45499663  8.02693433  8.02693433
  10.70196889 10.70196889  7.13639838
   4.45906675  4.45906675  8.02680098
   5.34715377  3.56999127  8.91454814
   6.24275863  4.45789328  9.80866296
   3.56999127  5.34715377  8.91454814
   4.45789328  6.24275863  9.80866296
   5.34965854  5.34965854 10.69729790
   6.23859134  6.23859134 11.58688043
   5.35003287  5.35003287  7.13420717
   6.24198308  6.24198308  8.02602041
   7.13462824  5.34967639  8.91691178
   8.02549555  6.24228309  9.80936295
   5.34967639  7.13462824  8.91691178
   6.24228309  8.02549555  9.80936295
   7.13368348  7.13368348 10.70049770
   8.02532228  8.02532228 11.59733276
   3.57421614  3.57421614  0.00512412
   4.45889877  4.45889877  0.89055859
   5.35161808  3.56923395  1.78329672
   6.24455387  4.46675566  2.66881400
   3.56923395  5.35161808  1.78329672
   4.46675566  6.24455387  2.66881400
   5.35330203  5.35330203  3.56465228
   6.24567348  6.24567348  4.45530611
  12.47480485 12.47480485 14.26607778
   6.24451051  6.24451051  0.84799168
   7.14296924 12.50054129  8.90213979
   8.03678603  6.26172163  2.66041757
  12.50054129  7.14296924  8.90213979
   6.26172163  8.03678603  2.66041757
   7.13862909  7.13862909  3.55949386
   8.02693433  8.02693433  4.45499663
   7.13639838 10.70196889 10.70196889
   8.02680098  4.45906675  4.45906675
   8.91454814  3.56999127  5.34715377
   9.80866296  4.45789328  6.24275863
   7.13420717  5.35003287  5.35003287
   8.02602041  6.24198308  6.24198308
   8.91691178  5.34967639  7.13462824
   9.80936295  6.24228309  8.02549555
   8.91454814  5.34715377  3.56999127
   9.80866296  6.24275863  4.45789328
  10.69729790  5.34965854  5.34965854
  11.58688043  6.23859134  6.23859134
   8.91691178  7.13462824  5.34967639
   9.80936295  8.02549555  6.24228309
  10.70049770  7.13368348  7.13368348
  11.59733276  8.02532228  8.02532228
  10.70196889  7.13639838 10.70196889
   4.45906675  8.02680098  4.45906675
   5.35003287  7.13420717  5.35003287
   6.24198308  8.02602041  6.24198308
   3.56999127  8.91454814  5.34715377
   4.45789328  9.80866296  6.24275863
   5.34967639  8.91691178  7.13462824
   6.24228309  9.80936295  8.02549555
   5.34715377  8.91454814  3.56999127
   6.24275863  9.80866296  4.45789328
   7.13462824  8.91691178  5.34967639
   8.02549555  9.80936295  6.24228309
   5.34965854 10.69729790  5.34965854
   6.23859134 11.58688043  6.23859134
   7.13368348 10.70049770  7.13368348
   8.02532228 11.59733276  8.02532228
   7.13377113  7.13377113  7.13377113
   8.02574434  8.02574434  8.02574434
   8.91792293  7.13396338  8.91792293
   9.80974517  8.02644536  9.80974517
   7.13396338  8.91792293  8.91792293
   8.02644536  9.80974517  9.80974517
   8.91760995  8.91760995 10.70250430
   9.80894754  9.80894754 11.59371073
   8.91792293  8.91792293  7.13396338
   9.80974517  9.80974517  8.02644536
  10.70250430  8.91760995  8.91760995
  11.59371073  9.80894754  9.80894754
   8.91760995 10.70250430  8.91760995
   9.80894754 11.59371073  9.80894754
  10.70015089 10.70015089 10.70015089
  11.59140565 11.59140565 11.59140565
  14.18000492 14.18000492 14.18000492
 


--------------------------------------------------------------------------------------------------------


 use seriel FFT for wavefunctions x direction half grid
 k-point  1 :   0.0000 0.0000 0.0000  plane waves:    6662

 maximum and minimum number of plane-waves per node :      6662     6662

 maximum number of plane-waves:      6662
 maximum index in each direction: 
   IXMAX=   16   IYMAX=   16   IZMAX=   16
   IXMIN=    0   IYMIN=  -13   IZMIN=  -13

 WARNING: aliasing errors must be expected set NGX to  66 to avoid them
 WARNING: aliasing errors must be expected set NGY to  60 to avoid them
 WARNING: aliasing errors must be expected set NGZ to  60 to avoid them
 aliasing errors are usually negligible using standard VASP settings
 and one can safely disregard these warnings

 serial   3D FFT for wavefunctions
 parallel 3D FFT for charge:
    minimum data exchange during FFTs selected (reduces bandwidth)


 total amount of memory used by VASP on root node    67073. kBytes
========================================================================

   base      :      30000. kBytes
   nonl-proj :      15944. kBytes
   fftplans  :       1813. kBytes
   grid      :      13331. kBytes
   one-center:       2950. kBytes
   wavefun   :       3035. kBytes
 
     INWAV:  cpu time    0.36: real time    0.39
 Broyden mixing: mesh for mixing (old mesh)
   NGX = 33   NGY = 33   NGZ = 33
  (NGX  =100   NGY  =100   NGZ  =100)
  gives a total of  35937 points

 charge density for first step will be calculated from the start-wavefunctions


--------------------------------------------------------------------------------------------------------


 Maximum index for augmentation-charges          287 (set IRDMAX)


--------------------------------------------------------------------------------------------------------


 initial charge from wavefunction
 First call to EWALD:  gamma=   0.197
 Maximum number of real-space cells 3x 3x 3
 Maximum number of reciprocal cells 3x 3x 3

 FEWALD executed in parallel
    FEWALD:  cpu time    0.00: real time    0.01


----------------------------------------- Iteration    1(   1)  ---------------------------------------


    POTLOK:  cpu time    0.07: real time    0.07
    SETDIJ:  cpu time    0.03: real time    0.03
     EDDAV:  cpu time    2.65: real time    2.66
       DOS:  cpu time    0.00: real time    0.00
    CHARGE:  cpu time    0.10: real time    0.10
    MIXING:  cpu time    0.00: real time    0.00
    --------------------------------------------
      LOOP:  cpu time    2.86: real time    2.87

 eigenvalue-minimisations  :  1728
 total energy-change (2. order) :-0.1121522E+04  (-0.3272393E-02)
 number of electron     509.9999641 magnetization       2.0000003
 augmentation part        7.0433186 magnetization       0.1121672

 Broyden mixing:
  rms(total) = 0.12694E-01    rms(broyden)= 0.12678E-01
  rms(prec ) = 0.24873E-01
  weight for this iteration     100.00

 Free energy of the ion-electron system (eV)
  ---------------------------------------------------
  alpha Z        PSCENC =       342.61567790
  Ewald energy   TEWEN  =    -22019.69968423
  -Hartree energ DENC   =     -1805.09298143
  -exchange      EXHF   =         0.00000000
  -V(xc)+E(xc)   XCENC  =      1040.95240731
  PAW double counting   =     51943.74234285   -51272.51836832
  entropy T*S    EENTRO =         0.01159583
  eigenvalues    EBANDS =      1845.96154982
  atomic energy  EATOM  =     18802.50563071
  ---------------------------------------------------
  free energy    TOTEN  =     -1121.52182956 eV

  energy without entropy =    -1121.53342539  energy(sigma->0) =    -1121.52569484


--------------------------------------------------------------------------------------------------------




----------------------------------------- Iteration    1(   2)  ---------------------------------------


    POTLOK:  cpu time    0.06: real time    0.06
    SETDIJ:  cpu time    0.03: real time    0.03
     EDDAV:  cpu time    2.73: real time    2.74
       DOS:  cpu time    0.00: real time    0.00
    CHARGE:  cpu time    0.10: real time    0.10
    MIXING:  cpu time    0.00: real time    0.00
    --------------------------------------------
      LOOP:  cpu time    2.92: real time    2.94

 eigenvalue-minimisations  :  1792
 total energy-change (2. order) : 0.9192596E-03  (-0.2518512E-03)
 number of electron     509.9999641 magnetization       2.0000003
 augmentation part        7.0428799 magnetization       0.1119610

 Broyden mixing:
  rms(total) = 0.63673E-02    rms(broyden)= 0.63646E-02
  rms(prec ) = 0.10445E-01
  weight for this iteration     100.00

 eigenvalues of (default mixing * dielectric matrix)
  average eigenvalue GAMMA=   1.2399
  1.2399

 Free energy of the ion-electron system (eV)
  ---------------------------------------------------
  alpha Z        PSCENC =       342.61567790
  Ewald energy   TEWEN  =    -22019.69968423
  -Hartree energ DENC   =     -1804.98748523
  -exchange      EXHF   =         0.00000000
  -V(xc)+E(xc)   XCENC  =      1040.95182288
  PAW double counting   =     51944.30964504   -51273.08566026
  entropy T*S    EENTRO =         0.01159583
  eigenvalues    EBANDS =      1845.85754707
  atomic energy  EATOM  =     18802.50563071
  ---------------------------------------------------
  free energy    TOTEN  =     -1121.52091030 eV

  energy without entropy =    -1121.53250613  energy(sigma->0) =    -1121.52477558


--------------------------------------------------------------------------------------------------------




----------------------------------------- Iteration    1(   3)  ---------------------------------------


    POTLOK:  cpu time    0.06: real time    0.06
    SETDIJ:  cpu time    0.03: real time    0.03
     EDDAV:  cpu time    2.85: real time    2.86
       DOS:  cpu time    0.00: real time    0.00
    CHARGE:  cpu time    0.10: real time    0.10
    MIXING:  cpu time    0.00: real time    0.00
    --------------------------------------------
      LOOP:  cpu time    3.05: real time    3.06

 eigenvalue-minimisations  :  1888
 total energy-change (2. order) : 0.1402503E-03  (-0.8503831E-04)
 number of electron     509.9999641 magnetization       2.0000003
 augmentation part        7.0427157 magnetization       0.1118248

 Broyden mixing:
  rms(total) = 0.29179E-02    rms(broyden)= 0.29141E-02
  rms(prec ) = 0.38385E-02
  weight for this iteration     100.00

 eigenvalues of (default mixing * dielectric matrix)
  average eigenvalue GAMMA=   1.1772
  0.9463  1.4081

 Free energy of the ion-electron system (eV)
  ---------------------------------------------------
  alpha Z        PSCENC =       342.61567790
  Ewald energy   TEWEN  =    -22019.69968423
  -Hartree energ DENC   =     -1804.92854379
  -exchange      EXHF   =         0.00000000
  -V(xc)+E(xc)   XCENC  =      1040.95146548
  PAW double counting   =     51943.39130305   -51272.16715980
  entropy T*S    EENTRO =         0.01159583
  eigenvalues    EBANDS =      1845.79894480
  atomic energy  EATOM  =     18802.50563071
  ---------------------------------------------------
  free energy    TOTEN  =     -1121.52077005 eV

  energy without entropy =    -1121.53236588  energy(sigma->0) =    -1121.52463533


--------------------------------------------------------------------------------------------------------




----------------------------------------- Iteration    1(   4)  ---------------------------------------


    POTLOK:  cpu time    0.06: real time    0.06
    SETDIJ:  cpu time    0.03: real time    0.03
     EDDAV:  cpu time    2.24: real time    2.24
       DOS:  cpu time    0.00: real time    0.00
    --------------------------------------------
      LOOP:  cpu time    2.33: real time    2.34

 eigenvalue-minimisations  :  1376
 total energy-change (2. order) :-0.1607605E-05  (-0.1864812E-04)
 number of electron     509.9999641 magnetization       2.0000003
 augmentation part        7.0427157 magnetization       0.1118248

 Free energy of the ion-electron system (eV)
  ---------------------------------------------------
  alpha Z        PSCENC =       342.61567790
  Ewald energy   TEWEN  =    -22019.69968423
  -Hartree energ DENC   =     -1804.92781926
  -exchange      EXHF   =         0.00000000
  -V(xc)+E(xc)   XCENC  =      1040.95061453
  PAW double counting   =     51943.15413202   -51271.93014657
  entropy T*S    EENTRO =         0.01159583
  eigenvalues    EBANDS =      1845.79922742
  atomic energy  EATOM  =     18802.50563071
  ---------------------------------------------------
  free energy    TOTEN  =     -1121.52077166 eV

  energy without entropy =    -1121.53236749  energy(sigma->0) =    -1121.52463693


--------------------------------------------------------------------------------------------------------




 average (electrostatic) potential at core
  the test charge radii are     0.6557  0.6669
  (the norm of the test charge is              1.0000)
       1-106.0255       2-107.3206       3-106.0255       4-107.3206       5-107.5274
       6-107.7701       7-106.0255       8-107.3206       9-107.5274      10-107.7701
      11-107.5274      12-107.7701      13-107.8003      14-107.8524      15-107.6218
      16-107.7487      17-107.7060      18-108.3036      19-107.8327      20-107.8669
      21-107.7459      22-107.4288      23-107.8327      24-107.8669      25-107.7459
      26-107.4288      27-107.8366      28-107.7664      29-107.5555      30-107.6907
      31-107.6218      32-107.7487      33-107.8327      34-107.8669      35-107.7060
      36-108.3036      37-107.7459      38-107.4288      39-107.8327      40-107.8669
      41-107.8366      42-107.7664      43-107.7459      44-107.4288      45-107.5555
      46-107.6907      47-107.8656      48-107.7264      49-107.6506      50-107.7471
      51-107.6506      52-107.7471      53-107.8012      54-107.8250      55-107.8000
      56-107.8344      57-107.7985      58-107.8635      59-107.7985      60-107.8635
      61-107.8516      62-107.7980      63-107.6218      64-107.7487      65-107.8327
      66-107.8669      67-107.8327      68-107.8669      69-107.8366      70-107.7664
      71-107.7060      72-108.3036      73-107.7459      74-107.4288      75-107.7459
      76-107.4288      77-107.5555      78-107.6907      79-107.8656      80-107.7264
      81-107.6506      82-107.7471      83-107.8000      84-107.8344      85-107.7985
      86-107.8635      87-107.6506      88-107.7471      89-107.8012      90-107.8250
      91-107.7985      92-107.8635      93-107.8516      94-107.7980      95-107.8656
      96-107.7264      97-107.8000      98-107.8344      99-107.6506     100-107.7471
     101-107.7985     102-107.8635     103-107.6506     104-107.7471     105-107.7985
     106-107.8635     107-107.8012     108-107.8250     109-107.8516     110-107.7980
     111-107.8660     112-107.9062     113-107.8887     114-107.8725     115-107.8887
     116-107.8725     117-107.8395     118-107.7536     119-107.8887     120-107.8725
     121-107.8395     122-107.7536     123-107.8395     124-107.7536     125-107.7938
     126-107.8336     127-111.2868
 
 
 
 E-fermi :  14.6429     XC(G=0): -13.3210     alpha+bet :-20.4673


 spin component 1

 k-point   1 :       0.0000    0.0000    0.0000
  band No.  band energies     occupation 
      1      -9.0143      1.00000
      2      -7.8336      1.00000
      3      -7.3058      1.00000
      4      -7.2873      1.00000
      5      -7.2873      1.00000
      6      -7.2557      1.00000
      7      -7.2443      1.00000
      8      -7.2443      1.00000
      9      -7.1327      1.00000
     10      -6.9069      1.00000
     11      -6.7081      1.00000
     12      -6.7081      1.00000
     13      -6.6334      1.00000
     14      -6.6334      1.00000
     15      -6.3380      1.00000
     16      -5.1442      1.00000
     17      -4.5476      1.00000
     18      -4.5476      1.00000
     19      -4.5370      1.00000
     20      -4.5370      1.00000
     21      -4.5030      1.00000
     22      -4.5030      1.00000
     23      -4.4864      1.00000
     24      -4.4540      1.00000
     25      -4.4362      1.00000
     26      -4.4362      1.00000
     27      -4.2319      1.00000
     28      -3.7212      1.00000
     29      -3.2341      1.00000
     30      -3.2341      1.00000
     31      -3.2252      1.00000
     32      -3.1924      1.00000
     33      -3.0710      1.00000
     34      -3.0710      1.00000
     35      -2.9992      1.00000
     36      -2.9992      1.00000
     37      -2.9957      1.00000
     38      -2.9933      1.00000
     39      -2.9933      1.00000
     40      -2.9875      1.00000
     41      -2.9640      1.00000
     42      -2.9640      1.00000
     43      -2.9590      1.00000
     44      -2.9487      1.00000
     45      -2.9440      1.00000
     46      -2.9440      1.00000
     47      -2.8886      1.00000
     48      -2.8886      1.00000
     49      -2.8848      1.00000
     50      -2.8735      1.00000
     51      -2.8735      1.00000
     52      -2.8295      1.00000
     53      -2.6971      1.00000
     54      -2.6971      1.00000
     55      -1.6330      1.00000
     56      -0.8286      1.00000
     57      -0.8286      1.00000
     58      -0.8200      1.00000
     59      -0.7618      1.00000
     60      -0.3807      1.00000
     61      -0.2636      1.00000
     62      -0.2636      1.00000
     63      -0.2034      1.00000
     64      -0.2034      1.00000
     65      -0.0434      1.00000
     66       0.2737      1.00000
     67       0.4358      1.00000
     68       0.4358      1.00000
     69       0.5300      1.00000
     70       0.5300      1.00000
     71       0.5462      1.00000
     72       0.5543      1.00000
     73       0.5543      1.00000
     74       0.5700      1.00000
     75       0.6223      1.00000
     76       0.6223      1.00000
     77       1.0824      1.00000
     78       1.4953      1.00000
     79       1.5661      1.00000
     80       1.5661      1.00000
     81       1.6792      1.00000
     82       1.6985      1.00000
     83       1.6990      1.00000
     84       1.6990      1.00000
     85       1.7049      1.00000
     86       1.7134      1.00000
     87       1.7134      1.00000
     88       1.7237      1.00000
     89       1.7289      1.00000
     90       1.7289      1.00000
     91       1.7407      1.00000
     92       1.7407      1.00000
     93       1.7558      1.00000
     94       1.7558      1.00000
     95       1.7635      1.00000
     96       1.7783      1.00000
     97       1.7783      1.00000
     98       1.9535      1.00000
     99       2.1149      1.00000
    100       2.1149      1.00000
    101       3.1400      1.00000
    102       3.6480      1.00000
    103       3.6480      1.00000
    104       3.7286      1.00000
    105       3.8012      1.00000
    106       3.8039      1.00000
    107       3.8045      1.00000
    108       3.8045      1.00000
    109       3.8294      1.00000
    110       3.8294      1.00000
    111       3.9468      1.00000
    112       3.9468      1.00000
    113       4.0964      1.00000
    114       4.0964      1.00000
    115       4.1839      1.00000
    116       4.2070      1.00000
    117       4.2098      1.00000
    118       4.2098      1.00000
    119       4.2167      1.00000
    120       4.2497      1.00000
    121       4.2497      1.00000
    122       4.3628      1.00000
    123       4.3849      1.00000
    124       4.3849      1.00000
    125       4.6394      1.00000
    126       4.8182      1.00000
    127       4.8182      1.00000
    128       4.8693      1.00000
    129       4.9063      1.00000
    130       4.9063      1.00000
    131       4.9269      1.00000
    132       4.9269      1.00000
    133       4.9306      1.00000
    134       5.0464      1.00000
    135       5.0464      1.00000
    136       5.0551      1.00000
    137       5.1636      1.00000
    138       5.5373      1.00000
    139       5.5373      1.00000
    140       5.6196      1.00000
    141       5.7270      1.00000
    142       5.7385      1.00000
    143       5.7385      1.00000
    144       5.7490      1.00000
    145       5.7526      1.00000
    146       5.7526      1.00000
    147       5.7542      1.00000
    148       5.7764      1.00000
    149       5.7764      1.00000
    150       5.7791      1.00000
    151       5.7826      1.00000
    152       5.7826      1.00000
    153       5.8046      1.00000
    154       5.8046      1.00000
    155       5.8116      1.00000
    156       5.8436      1.00000
    157       5.8436      1.00000
    158       5.8607      1.00000
    159       5.8799      1.00000
    160       5.8925      1.00000
    161       5.9086      1.00000
    162       5.9086      1.00000
    163       5.9528      1.00000
    164       5.9866      1.00000
    165       5.9866      1.00000
    166       6.1054      1.00000
    167       6.1054      1.00000
    168       6.1333      1.00000
    169       6.2459      1.00000
    170       6.2459      1.00000
    171       6.2627      1.00000
    172       6.6023      1.00000
    173       6.6406      1.00000
    174       6.6406      1.00000
    175       7.3429      1.00000
    176       7.3429      1.00000
    177       7.5582      1.00000
    178       7.5950      1.00000
    179       7.5950      1.00000
    180       7.6072      1.00000
    181       7.6101      1.00000
    182       7.6101      1.00000
    183       7.6278      1.00000
    184       7.6292      1.00000
    185       7.6343      1.00000
    186       7.6403      1.00000
    187       7.6403      1.00000
    188       7.6525      1.00000
    189       7.6556      1.00000
    190       7.6556      1.00000
    191       7.6782      1.00000
    192       7.6782      1.00000
    193       7.7095      1.00000
    194       7.7234      1.00000
    195       7.7234      1.00000
    196       7.7817      1.00000
    197       7.8532      1.00000
    198       7.8727      1.00000
    199       7.8727      1.00000
    200       8.0074      1.00000
    201       8.0074      1.00000
    202       8.1130      1.00000
    203       8.1616      1.00000
    204       8.1616      1.00000
    205       8.3212      1.00000
    206       8.3212      1.00000
    207       8.4028      1.00000
    208       8.4057      1.00000
    209       8.4131      1.00000
    210       8.4131      1.00000
    211       8.4405      1.00000
    212       8.4405      1.00000
    213       8.4635      1.00000
    214       8.9299      1.00000
    215       8.9405      1.00000
    216       8.9405      1.00000
    217       9.3899      1.00000
    218       9.3899      1.00000
    219       9.5045      1.00000
    220       9.5080      1.00000
    221       9.5080      1.00000
    222       9.5171      1.00000
    223       9.5347      1.00000
    224       9.5641      1.00000
    225       9.5641      1.00000
    226       9.6028      1.00000
    227       9.6042      1.00000
    228       9.6042      1.00000
    229       9.7005      1.00000
    230       9.7005      1.00000
    231       9.7553      1.00000
    232       9.7553      1.00000
    233       9.8152      1.00000
    234      10.1968      1.00000
    235      10.3006      1.00000
    236      10.3006      1.00000
    237      10.5804      1.00000
    238      10.6582      1.00000
    239      10.6582      1.00000
    240      10.7582      1.00000
    241      10.7582      1.00000
    242      10.7792      1.00000
    243      10.7792      1.00000
    244      10.7868      1.00000
    245      10.7957      1.00000
    246      10.7957      1.00000
    247      10.8066      1.00000
    248      10.8256      1.00000
    249      10.8303      1.00000
    250      10.8303      1.00000
    251      12.1790      1.00000
    252      12.3020      1.00000
    253      12.3020      1.00000
    254      13.3478      1.00000
    255      14.4745      1.00000
    256      14.4745      1.00000
    257      16.9343     -0.00000
    258      16.9343     -0.00000
    259      16.9437     -0.00000
    260      17.0483     -0.00000
    261      17.0483     -0.00000
    262      17.0493     -0.00000
    263      17.2466     -0.00000
    264      17.3058     -0.00000
    265      17.3058     -0.00000
    266      17.3415     -0.00000
    267      17.3415     -0.00000
    268      17.4143     -0.00000
    269      18.1427     -0.00000
    270      18.1427     -0.00000
    271      18.1565     -0.00000
    272      18.3287     -0.00000
    273      18.4998     -0.00000
    274      18.4998     -0.00000
    275      18.5500     -0.00000
    276      18.5500     -0.00000
    277      18.5534     -0.00000
    278      18.5545     -0.00000
    279      18.5584     -0.00000
    280      18.5584     -0.00000
    281      18.5789     -0.00000
    282      18.5789     -0.00000
    283      18.5950     -0.00000
    284      18.5972     -0.00000
    285      18.6025     -0.00000
    286      18.6025     -0.00000
    287      18.6548     -0.00000
    288      18.6574     -0.00000
    289      18.6574     -0.00000
    290      18.9188     -0.00000
    291      18.9188     -0.00000
    292      18.9379     -0.00000
    293      18.9689     -0.00000
    294      18.9689     -0.00000
    295      19.1640     -0.00000
    296      20.1893      0.00000
    297      20.2004      0.00000
    298      20.2004      0.00000
    299      20.2360      0.00000
    300      20.2516      0.00000
    301      20.2516      0.00000
    302      20.2620      0.00000
    303      20.2620      0.00000
    304      20.2946      0.00000
    305      20.2946      0.00000
    306      20.3156      0.00000
    307      20.3219      0.00000
    308      20.3219      0.00000
    309      20.3416      0.00000
    310      20.3809      0.00000
    311      20.3809      0.00000
    312      20.4236      0.00000
    313      20.4236      0.00000
    314      20.4341      0.00000
    315      20.4451      0.00000
    316      20.4551      0.00000
    317      20.4856      0.00000
    318      20.4856      0.00000
    319      20.5330      0.00000
    320      20.5330      0.00000
    321      20.5332      0.00000
    322      20.5919      0.00000
    323      20.5919      0.00000
    324      20.6210      0.00000
    325      20.7556      0.00000
    326      20.7580      0.00000
    327      20.7580      0.00000
    328      20.8233      0.00000
    329      20.8233      0.00000
    330      20.8424      0.00000
    331      20.9434      0.00000
    332      20.9444      0.00000
    333      20.9966      0.00000
    334      20.9966      0.00000
    335      21.2156      0.00000
    336      21.2289      0.00000
    337      21.2289      0.00000
    338      21.3631      0.00000
    339      21.3631      0.00000
    340      21.6622      0.00000
    341      21.6622      0.00000
    342      21.7180      0.00000
    343      22.1456      0.00000
    344      22.4349      0.00000
    345      22.4349      0.00000
    346      22.4716      0.00000
    347      22.4973      0.00000
    348      22.5277      0.00000
    349      22.5277      0.00000
    350      22.5587      0.00000
    351      22.5747      0.00000
    352      22.5747      0.00000
    353      22.5971      0.00000
    354      22.7166      0.00000
    355      22.7166      0.00000
    356      22.8402      0.00000
    357      22.8402      0.00000
    358      22.9185      0.00000
    359      22.9185      0.00000
    360      22.9363      0.00000
    361      22.9718      0.00000
    362      23.0971      0.00000
    363      23.1233      0.00000
    364      23.1233      0.00000
    365      23.1551      0.00000
    366      23.1801      0.00000
    367      23.1801      0.00000
    368      23.1823      0.00000
    369      23.2478      0.00000
    370      23.2876      0.00000
    371      23.2876      0.00000
    372      23.3146      0.00000
    373      23.3146      0.00000
    374      23.7569      0.00000
    375      23.7676      0.00000
    376      23.7756      0.00000
    377      23.8563      0.00000
    378      23.8673      0.00000
    379      23.9100      0.00000
    380      23.9261      0.00000
    381      23.9320      0.00000
    382      23.9635      0.00000
    383      23.9767      0.00000
    384      24.0164      0.00000

 spin component 2

 k-point   1 :       0.0000    0.0000    0.0000
  band No.  band energies     occupation 
      1      -9.0040      1.00000
      2      -7.8287      1.00000
      3      -7.3017      1.00000
      4      -7.2785      1.00000
      5      -7.2785      1.00000
      6      -7.2477      1.00000
      7      -7.2309      1.00000
      8      -7.2309      1.00000
      9      -7.1198      1.00000
     10      -6.9031      1.00000
     11      -6.6986      1.00000
     12      -6.6986      1.00000
     13      -6.6069      1.00000
     14      -6.6069      1.00000
     15      -6.2952      1.00000
     16      -5.1267      1.00000
     17      -4.5385      1.00000
     18      -4.5385      1.00000
     19      -4.5308      1.00000
     20      -4.5308      1.00000
     21      -4.4782      1.00000
     22      -4.4782      1.00000
     23      -4.4763      1.00000
     24      -4.4479      1.00000
     25      -4.4191      1.00000
     26      -4.4191      1.00000
     27      -4.2087      1.00000
     28      -3.7076      1.00000
     29      -3.2291      1.00000
     30      -3.2291      1.00000
     31      -3.2108      1.00000
     32      -3.1873      1.00000
     33      -3.0659      1.00000
     34      -3.0659      1.00000
     35      -2.9875      1.00000
     36      -2.9872      1.00000
     37      -2.9872      1.00000
     38      -2.9795      1.00000
     39      -2.9795      1.00000
     40      -2.9766      1.00000
     41      -2.9534      1.00000
     42      -2.9534      1.00000
     43      -2.9500      1.00000
     44      -2.9416      1.00000
     45      -2.9396      1.00000
     46      -2.9396      1.00000
     47      -2.8744      1.00000
     48      -2.8744      1.00000
     49      -2.8654      1.00000
     50      -2.8609      1.00000
     51      -2.8609      1.00000
     52      -2.8219      1.00000
     53      -2.5972      1.00000
     54      -2.5972      1.00000
     55      -1.5269      1.00000
     56      -0.8186      1.00000
     57      -0.8186      1.00000
     58      -0.8097      1.00000
     59      -0.7487      1.00000
     60      -0.3579      1.00000
     61      -0.2550      1.00000
     62      -0.2550      1.00000
     63      -0.1788      1.00000
     64      -0.1788      1.00000
     65      -0.0223      1.00000
     66       0.2932      1.00000
     67       0.4416      1.00000
     68       0.4416      1.00000
     69       0.5410      1.00000
     70       0.5410      1.00000
     71       0.5587      1.00000
     72       0.5606      1.00000
     73       0.5606      1.00000
     74       0.5817      1.00000
     75       0.6768      1.00000
     76       0.6768      1.00000
     77       1.1169      1.00000
     78       1.5074      1.00000
     79       1.5733      1.00000
     80       1.5733      1.00000
     81       1.7029      1.00000
     82       1.7089      1.00000
     83       1.7102      1.00000
     84       1.7102      1.00000
     85       1.7214      1.00000
     86       1.7227      1.00000
     87       1.7227      1.00000
     88       1.7341      1.00000
     89       1.7344      1.00000
     90       1.7344      1.00000
     91       1.7536      1.00000
     92       1.7536      1.00000
     93       1.7686      1.00000
     94       1.7686      1.00000
     95       1.7795      1.00000
     96       1.8010      1.00000
     97       1.8010      1.00000
     98       1.9724      1.00000
     99       2.1940      1.00000
    100       2.1940      1.00000
    101       3.2064      1.00000
    102       3.6580      1.00000
    103       3.6580      1.00000
    104       3.7441      1.00000
    105       3.8168      1.00000
    106       3.8183      1.00000
    107       3.8183      1.00000
    108       3.8186      1.00000
    109       3.8407      1.00000
    110       3.8407      1.00000
    111       3.9875      1.00000
    112       3.9875      1.00000
    113       4.1011      1.00000
    114       4.1011      1.00000
    115       4.1964      1.00000
    116       4.2168      1.00000
    117       4.2191      1.00000
    118       4.2191      1.00000
    119       4.2223      1.00000
    120       4.2658      1.00000
    121       4.2658      1.00000
    122       4.3694      1.00000
    123       4.4055      1.00000
    124       4.4055      1.00000
    125       4.6974      1.00000
    126       4.8338      1.00000
    127       4.8338      1.00000
    128       4.8805      1.00000
    129       4.9126      1.00000
    130       4.9126      1.00000
    131       4.9359      1.00000
    132       4.9420      1.00000
    133       4.9420      1.00000
    134       5.0598      1.00000
    135       5.0598      1.00000
    136       5.0661      1.00000
    137       5.2091      1.00000
    138       5.5476      1.00000
    139       5.5476      1.00000
    140       5.6290      1.00000
    141       5.7379      1.00000
    142       5.7435      1.00000
    143       5.7435      1.00000
    144       5.7598      1.00000
    145       5.7598      1.00000
    146       5.7605      1.00000
    147       5.7635      1.00000
    148       5.7873      1.00000
    149       5.7873      1.00000
    150       5.7929      1.00000
    151       5.7954      1.00000
    152       5.7954      1.00000
    153       5.8178      1.00000
    154       5.8275      1.00000
    155       5.8275      1.00000
    156       5.8619      1.00000
    157       5.8619      1.00000
    158       5.8731      1.00000
    159       5.8999      1.00000
    160       5.9125      1.00000
    161       5.9198      1.00000
    162       5.9198      1.00000
    163       5.9746      1.00000
    164       6.0298      1.00000
    165       6.0298      1.00000
    166       6.1217      1.00000
    167       6.1217      1.00000
    168       6.1475      1.00000
    169       6.2609      1.00000
    170       6.2609      1.00000
    171       6.2755      1.00000
    172       6.6331      1.00000
    173       6.6986      1.00000
    174       6.6986      1.00000
    175       7.3517      1.00000
    176       7.3517      1.00000
    177       7.6053      1.00000
    178       7.6053      1.00000
    179       7.6069      1.00000
    180       7.6152      1.00000
    181       7.6169      1.00000
    182       7.6169      1.00000
    183       7.6349      1.00000
    184       7.6490      1.00000
    185       7.6536      1.00000
    186       7.6536      1.00000
    187       7.6553      1.00000
    188       7.6584      1.00000
    189       7.6622      1.00000
    190       7.6622      1.00000
    191       7.6918      1.00000
    192       7.6918      1.00000
    193       7.7152      1.00000
    194       7.7443      1.00000
    195       7.7443      1.00000
    196       7.8150      1.00000
    197       7.8717      1.00000
    198       7.8971      1.00000
    199       7.8971      1.00000
    200       8.0195      1.00000
    201       8.0195      1.00000
    202       8.1297      1.00000
    203       8.1896      1.00000
    204       8.1896      1.00000
    205       8.3375      1.00000
    206       8.3375      1.00000
    207       8.4211      1.00000
    208       8.4211      1.00000
    209       8.4218      1.00000
    210       8.4299      1.00000
    211       8.4735      1.00000
    212       8.4735      1.00000
    213       8.4795      1.00000
    214       8.9583      1.00000
    215       8.9885      1.00000
    216       8.9885      1.00000
    217       9.4037      1.00000
    218       9.4037      1.00000
    219       9.5145      1.00000
    220       9.5161      1.00000
    221       9.5161      1.00000
    222       9.5317      1.00000
    223       9.5447      1.00000
    224       9.5838      1.00000
    225       9.5838      1.00000
    226       9.6093      1.00000
    227       9.6146      1.00000
    228       9.6146      1.00000
    229       9.7152      1.00000
    230       9.7152      1.00000
    231       9.7770      1.00000
    232       9.7770      1.00000
    233       9.8427      1.00000
    234      10.2065      1.00000
    235      10.3500      1.00000
    236      10.3500      1.00000
    237      10.6697      1.00000
    238      10.6697      1.00000
    239      10.7716      1.00000
    240      10.7716      1.00000
    241      10.7733      1.00000
    242      10.7888      1.00000
    243      10.7888      1.00000
    244      10.8175      1.00000
    245      10.8201      1.00000
    246      10.8201      1.00000
    247      10.8462      1.00000
    248      10.8462      1.00000
    249      10.8506      1.00000
    250      11.1093      1.00000
    251      12.3091      1.00000
    252      12.3620      1.00000
    253      12.3620      1.00000
    254      13.8083      1.00000
    255      15.7069     -0.00000
    256      15.7069     -0.00000
    257      16.9423     -0.00000
    258      16.9423     -0.00000
    259      16.9636     -0.00000
    260      17.0577     -0.00000
    261      17.0798     -0.00000
    262      17.0798     -0.00000
    263      17.2565     -0.00000
    264      17.3134     -0.00000
    265      17.3134     -0.00000
    266      17.3562     -0.00000
    267      17.3562     -0.00000
    268      17.4394     -0.00000
    269      18.1623     -0.00000
    270      18.1623     -0.00000
    271      18.1643     -0.00000
    272      18.3389     -0.00000
    273      18.5059     -0.00000
    274      18.5059     -0.00000
    275      18.5568     -0.00000
    276      18.5568     -0.00000
    277      18.5581     -0.00000
    278      18.5643     -0.00000
    279      18.5660     -0.00000
    280      18.5660     -0.00000
    281      18.5899     -0.00000
    282      18.5899     -0.00000
    283      18.6000     -0.00000
    284      18.6042     -0.00000
    285      18.6147     -0.00000
    286      18.6147     -0.00000
    287      18.6687     -0.00000
    288      18.6901     -0.00000
    289      18.6901     -0.00000
    290      18.9405     -0.00000
    291      18.9405     -0.00000
    292      18.9563     -0.00000
    293      18.9962     -0.00000
    294      18.9962     -0.00000
    295      19.2261     -0.00000
    296      20.1962      0.00000
    297      20.2076      0.00000
    298      20.2076      0.00000
    299      20.2453      0.00000
    300      20.2581      0.00000
    301      20.2581      0.00000
    302      20.2688      0.00000
    303      20.2688      0.00000
    304      20.3051      0.00000
    305      20.3051      0.00000
    306      20.3256      0.00000
    307      20.3293      0.00000
    308      20.3293      0.00000
    309      20.3479      0.00000
    310      20.3958      0.00000
    311      20.3958      0.00000
    312      20.4329      0.00000
    313      20.4329      0.00000
    314      20.4433      0.00000
    315      20.4523      0.00000
    316      20.4620      0.00000
    317      20.4961      0.00000
    318      20.4961      0.00000
    319      20.5402      0.00000
    320      20.5416      0.00000
    321      20.5416      0.00000
    322      20.6059      0.00000
    323      20.6059      0.00000
    324      20.6316      0.00000
    325      20.7967      0.00000
    326      20.7969      0.00000
    327      20.7969      0.00000
    328      20.8386      0.00000
    329      20.8386      0.00000
    330      20.8521      0.00000
    331      20.9554      0.00000
    332      20.9668      0.00000
    333      21.0119      0.00000
    334      21.0119      0.00000
    335      21.2342      0.00000
    336      21.2659      0.00000
    337      21.2659      0.00000
    338      21.4084      0.00000
    339      21.4084      0.00000
    340      21.6978      0.00000
    341      21.6978      0.00000
    342      21.7636      0.00000
    343      22.2047      0.00000
    344      22.4467      0.00000
    345      22.4467      0.00000
    346      22.4824      0.00000
    347      22.5054      0.00000
    348      22.5363      0.00000
    349      22.5363      0.00000
    350      22.5733      0.00000
    351      22.5842      0.00000
    352      22.5842      0.00000
    353      22.6096      0.00000
    354      22.7471      0.00000
    355      22.7471      0.00000
    356      22.8515      0.00000
    357      22.8515      0.00000
    358      22.9378      0.00000
    359      22.9378      0.00000
    360      22.9527      0.00000
    361      22.9921      0.00000
    362      23.0972      0.00000
    363      23.1443      0.00000
    364      23.1443      0.00000
    365      23.1795      0.00000
    366      23.1957      0.00000
    367      23.2037      0.00000
    368      23.2037      0.00000
    369      23.2604      0.00000
    370      23.3054      0.00000
    371      23.3054      0.00000
    372      23.3474      0.00000
    373      23.3474      0.00000
    374      23.7702      0.00000
    375      23.7744      0.00000
    376      23.7920      0.00000
    377      23.8581      0.00000
    378      23.8608      0.00000
    379      23.8776      0.00000
    380      23.9365      0.00000
    381      23.9386      0.00000
    382      23.9539      0.00000
    383      23.9856      0.00000
    384      24.0305      0.00000


--------------------------------------------------------------------------------------------------------


 soft charge-density along one line, spin component           1
[...]
   0.602E+00 0.602E+00 0.103E+02   -.530E+00 -.530E+00 -.112E+02   -.737E-01 -.737E-01 0.903E+00   0.611E-03 0.611E-03 -.257E-02
   0.277E+01 -.141E+01 -.141E+01   -.245E+01 0.163E+01 0.163E+01   -.312E+00 -.225E+00 -.225E+00   -.268E-03 -.490E-03 -.490E-03
   0.439E+01 0.232E-01 0.232E-01   -.328E+01 0.422E-01 0.422E-01   -.111E+01 -.655E-01 -.655E-01   0.245E-02 0.135E-03 0.135E-03
   0.389E+01 0.465E+01 -.437E+01   -.558E+01 -.538E+01 0.501E+01   0.168E+01 0.726E+00 -.646E+00   -.528E-03 0.231E-03 -.987E-03
   0.435E+01 0.427E+01 -.203E+01   -.432E+01 -.481E+01 0.205E+01   -.310E-01 0.544E+00 -.210E-01   0.987E-03 -.565E-03 -.823E-06
   0.184E+01 0.112E+01 0.112E+01   -.195E+01 -.130E+01 -.130E+01   0.114E+00 0.176E+00 0.176E+00   0.946E-03 -.470E-03 -.470E-03
   0.182E+01 0.150E+01 0.150E+01   -.170E+01 -.161E+01 -.161E+01   -.122E+00 0.110E+00 0.110E+00   0.113E-02 -.612E-04 -.612E-04
   0.240E+01 0.397E+01 -.953E+00   -.258E+01 -.441E+01 0.103E+01   0.180E+00 0.438E+00 -.712E-01   0.970E-03 0.655E-04 -.104E-02
   0.370E+00 0.110E+01 -.188E+01   -.367E+00 -.128E+01 0.175E+01   -.495E-02 0.178E+00 0.123E+00   0.174E-02 -.928E-03 0.617E-03
   0.389E+01 -.437E+01 0.465E+01   -.558E+01 0.501E+01 -.538E+01   0.168E+01 -.646E+00 0.726E+00   -.528E-03 -.987E-03 0.231E-03
   0.435E+01 -.203E+01 0.427E+01   -.432E+01 0.205E+01 -.481E+01   -.310E-01 -.210E-01 0.544E+00   0.987E-03 -.823E-06 -.565E-03
   0.308E+01 0.156E+01 0.156E+01   -.342E+01 -.147E+01 -.147E+01   0.336E+00 -.914E-01 -.914E-01   0.816E-03 -.353E-03 -.353E-03
   0.365E+01 -.142E+01 -.142E+01   -.359E+01 0.122E+01 0.122E+01   -.683E-01 0.193E+00 0.193E+00   0.183E-02 -.954E-04 -.954E-04
   0.240E+01 -.953E+00 0.397E+01   -.258E+01 0.103E+01 -.441E+01   0.180E+00 -.712E-01 0.438E+00   0.970E-03 -.104E-02 0.655E-04
   0.370E+00 -.188E+01 0.110E+01   -.367E+00 0.175E+01 -.128E+01   -.495E-02 0.123E+00 0.178E+00   0.174E-02 0.617E-03 -.928E-03
   -.253E+00 -.231E+01 -.231E+01   0.350E+00 0.239E+01 0.239E+01   -.996E-01 -.776E-01 -.776E-01   0.164E-02 -.115E-02 -.115E-02
   -.481E+01 -.330E+01 -.330E+01   0.538E+01 0.334E+01 0.334E+01   -.561E+00 -.437E-01 -.437E-01   0.716E-03 -.569E-03 -.569E-03
   -.141E+01 0.277E+01 -.141E+01   0.163E+01 -.245E+01 0.163E+01   -.225E+00 -.312E+00 -.225E+00   -.490E-03 -.268E-03 -.490E-03
   0.232E-01 0.439E+01 0.232E-01   0.422E-01 -.328E+01 0.422E-01   -.655E-01 -.111E+01 -.655E-01   0.135E-03 0.245E-02 0.135E-03
   0.112E+01 0.184E+01 0.112E+01   -.130E+01 -.195E+01 -.130E+01   0.176E+00 0.114E+00 0.176E+00   -.470E-03 0.946E-03 -.470E-03
   0.150E+01 0.182E+01 0.150E+01   -.161E+01 -.170E+01 -.161E+01   0.110E+00 -.122E+00 0.110E+00   -.612E-04 0.113E-02 -.612E-04
   0.465E+01 0.389E+01 -.437E+01   -.538E+01 -.558E+01 0.501E+01   0.726E+00 0.168E+01 -.646E+00   0.231E-03 -.528E-03 -.987E-03
   0.427E+01 0.435E+01 -.203E+01   -.481E+01 -.432E+01 0.205E+01   0.544E+00 -.310E-01 -.210E-01   -.565E-03 0.987E-03 -.823E-06
   0.397E+01 0.240E+01 -.953E+00   -.441E+01 -.258E+01 0.103E+01   0.438E+00 0.180E+00 -.712E-01   0.655E-04 0.970E-03 -.104E-02
   0.110E+01 0.370E+00 -.188E+01   -.128E+01 -.367E+00 0.175E+01   0.178E+00 -.495E-02 0.123E+00   -.928E-03 0.174E-02 0.617E-03
   -.437E+01 0.389E+01 0.465E+01   0.501E+01 -.558E+01 -.538E+01   -.646E+00 0.168E+01 0.726E+00   -.987E-03 -.528E-03 0.231E-03
   -.203E+01 0.435E+01 0.427E+01   0.205E+01 -.432E+01 -.481E+01   -.210E-01 -.310E-01 0.544E+00   -.823E-06 0.987E-03 -.565E-03
   -.953E+00 0.240E+01 0.397E+01   0.103E+01 -.258E+01 -.441E+01   -.712E-01 0.180E+00 0.438E+00   -.104E-02 0.970E-03 0.655E-04
   -.188E+01 0.370E+00 0.110E+01   0.175E+01 -.367E+00 -.128E+01   0.123E+00 -.495E-02 0.178E+00   0.617E-03 0.174E-02 -.928E-03
   0.156E+01 0.308E+01 0.156E+01   -.147E+01 -.342E+01 -.147E+01   -.914E-01 0.336E+00 -.914E-01   -.353E-03 0.816E-03 -.353E-03
   -.142E+01 0.365E+01 -.142E+01   0.122E+01 -.359E+01 0.122E+01   0.193E+00 -.683E-01 0.193E+00   -.954E-04 0.183E-02 -.954E-04
   -.231E+01 -.253E+00 -.231E+01   0.239E+01 0.350E+00 0.239E+01   -.776E-01 -.996E-01 -.776E-01   -.115E-02 0.164E-02 -.115E-02
   -.330E+01 -.481E+01 -.330E+01   0.334E+01 0.538E+01 0.334E+01   -.437E-01 -.561E+00 -.437E-01   -.569E-03 0.716E-03 -.569E-03
   0.121E+01 0.121E+01 0.121E+01   -.133E+01 -.133E+01 -.133E+01   0.126E+00 0.126E+00 0.126E+00   -.433E-03 -.433E-03 -.433E-03
   0.628E-01 0.628E-01 0.628E-01   -.102E+00 -.102E+00 -.102E+00   0.381E-01 0.381E-01 0.381E-01   0.849E-03 0.849E-03 0.849E-03
   -.955E+00 0.587E+00 -.955E+00   0.102E+01 -.667E+00 0.102E+01   -.648E-01 0.780E-01 -.648E-01   0.653E-03 0.272E-03 0.653E-03
   -.155E+01 0.708E+00 -.155E+01   0.163E+01 -.635E+00 0.163E+01   -.817E-01 -.732E-01 -.817E-01   0.401E-03 -.919E-03 0.401E-03
   0.587E+00 -.955E+00 -.955E+00   -.667E+00 0.102E+01 0.102E+01   0.780E-01 -.648E-01 -.648E-01   0.272E-03 0.653E-03 0.653E-03
   0.708E+00 -.155E+01 -.155E+01   -.635E+00 0.163E+01 0.163E+01   -.732E-01 -.817E-01 -.817E-01   -.919E-03 0.401E-03 0.401E-03
   0.665E+00 0.665E+00 -.347E+01   -.583E+00 -.583E+00 0.374E+01   -.828E-01 -.828E-01 -.273E+00   0.128E-03 0.128E-03 0.741E-03
   0.248E+01 0.248E+01 -.291E+01   -.240E+01 -.240E+01 0.353E+01   -.787E-01 -.787E-01 -.620E+00   0.349E-03 0.349E-03 -.585E-05
   -.955E+00 -.955E+00 0.587E+00   0.102E+01 0.102E+01 -.667E+00   -.648E-01 -.648E-01 0.780E-01   0.653E-03 0.653E-03 0.272E-03
   -.155E+01 -.155E+01 0.708E+00   0.163E+01 0.163E+01 -.635E+00   -.817E-01 -.817E-01 -.732E-01   0.401E-03 0.401E-03 -.919E-03
   -.347E+01 0.665E+00 0.665E+00   0.374E+01 -.583E+00 -.583E+00   -.273E+00 -.828E-01 -.828E-01   0.741E-03 0.128E-03 0.128E-03
   -.291E+01 0.248E+01 0.248E+01   0.353E+01 -.240E+01 -.240E+01   -.620E+00 -.787E-01 -.787E-01   -.585E-05 0.349E-03 0.349E-03
   0.665E+00 -.347E+01 0.665E+00   -.583E+00 0.374E+01 -.583E+00   -.828E-01 -.273E+00 -.828E-01   0.128E-03 0.741E-03 0.128E-03
   0.248E+01 -.291E+01 0.248E+01   -.240E+01 0.353E+01 -.240E+01   -.787E-01 -.620E+00 -.787E-01   0.349E-03 -.585E-05 0.349E-03
   0.891E+00 0.891E+00 0.891E+00   -.108E+01 -.108E+01 -.108E+01   0.184E+00 0.184E+00 0.184E+00   -.659E-03 -.659E-03 -.659E-03
   0.145E+01 0.145E+01 0.145E+01   -.150E+01 -.150E+01 -.150E+01   0.473E-01 0.473E-01 0.473E-01   0.365E-03 0.365E-03 0.365E-03
   -.593E+02 -.593E+02 -.593E+02   0.796E+02 0.796E+02 0.796E+02   -.203E+02 -.203E+02 -.203E+02   -.431E-02 -.431E-02 -.431E-02
 -----------------------------------------------------------------------------------------------
   0.917E+01 0.917E+01 0.917E+01   -.711E-13 -.142E-12 -.455E-12   -.917E+01 -.917E+01 -.917E+01   -.163E-02 -.163E-02 -.163E-02
 
 
 POSITION                                       TOTAL-FORCE (eV/Angst)
 -----------------------------------------------------------------------------------
      8.98719     14.22057      8.98719         0.017885     -0.008448      0.017885
      2.67269      0.88548      2.67269        -0.000099     -0.011227     -0.000099
     14.22057      8.98719      8.98719        -0.008448      0.017885      0.017885
      0.88548      2.67269      2.67269        -0.011227     -0.000099     -0.000099
      1.78331      1.78331      3.56439         0.006843      0.006843      0.001635
      2.67483      2.67483      4.45870         0.001191      0.001191      0.004240
      8.98719      8.98719     14.22057         0.017885      0.017885     -0.008448
      2.67269      2.67269      0.88548        -0.000099     -0.000099     -0.011227
      3.56439      1.78331      1.78331         0.001635      0.006843      0.006843
      4.45870      2.67483      2.67483         0.004240      0.001191      0.001191
      1.78331      3.56439      1.78331         0.006843      0.001635      0.006843
      2.67483      4.45870      2.67483         0.001191      0.004240      0.001191
      3.56766      3.56766      3.56766        -0.000293     -0.000293     -0.000293
      4.45933      4.45933      4.45933         0.005097      0.005097      0.005097
      3.57439      0.00483      3.57439         0.002556      0.006850      0.002556
      4.45888      0.89074      4.45888         0.000439     -0.005016      0.000439
     12.47444     14.26571     12.47444        -0.004469      0.002269     -0.004469
      6.24437      0.84831      6.24437        -0.005388     -0.011886     -0.005388
      3.56925      1.78325      5.35171         0.001458      0.003011     -0.000393
      4.46687      2.66873      6.24479         0.002552     -0.000824      0.000226
     12.50074      8.90187      7.14289         0.000198     -0.000135     -0.000133
      6.26153      2.66065      8.03668        -0.004291      0.000482      0.003016
      5.35171      1.78325      3.56925        -0.000393      0.003011      0.001458
      6.24479      2.66873      4.46687         0.000226     -0.000824      0.002552
      7.14289      8.90187     12.50074        -0.000133     -0.000135      0.000198
      8.03668      2.66065      6.26153         0.003016      0.000482     -0.004291
      5.35328      3.56483      5.35328         0.005393     -0.001657      0.005393
      6.24585      4.45518      6.24585         0.003340      0.002159      0.003340
      7.13878      3.55939      7.13878         0.003299     -0.000723      0.003299
      8.02707      4.45489      8.02707        -0.000763      0.000027     -0.000763
      0.00483      3.57439      3.57439         0.006850      0.002556      0.002556
      0.89074      4.45888      4.45888        -0.005016      0.000439      0.000439
      1.78325      3.56925      5.35171         0.003011      0.001458     -0.000393
      2.66873      4.46687      6.24479        -0.000824      0.002552      0.000226
     14.26571     12.47444     12.47444         0.002269     -0.004469     -0.004469
      0.84831      6.24437      6.24437        -0.011886     -0.005388     -0.005388
      8.90187     12.50074      7.14289        -0.000135      0.000198     -0.000133
      2.66065      6.26153      8.03668         0.000482     -0.004291      0.003016
      1.78325      5.35171      3.56925         0.003011     -0.000393      0.001458
      2.66873      6.24479      4.46687        -0.000824      0.000226      0.002552
      3.56483      5.35328      5.35328        -0.001657      0.005393      0.005393
      4.45518      6.24585      6.24585         0.002159      0.003340      0.003340
      8.90187      7.14289     12.50074        -0.000135     -0.000133      0.000198
      2.66065      8.03668      6.26153         0.000482      0.003016     -0.004291
      3.55939      7.13878      7.13878        -0.000723      0.003299      0.003299
      4.45489      8.02707      8.02707         0.000027     -0.000763     -0.000763
     10.70194     10.70194      7.13629         0.001186      0.001186      0.002283
      4.45911      4.45911      8.02685         0.000071      0.000071      0.000818
      5.34697      3.57009      8.91456        -0.002524      0.001986     -0.002930
      6.24289      4.45785      9.80862        -0.004418      0.001219     -0.000052
      3.57009      5.34697      8.91456         0.001986     -0.002524     -0.002930
      4.45785      6.24289      9.80862         0.001219     -0.004418     -0.000052
      5.34953      5.34953     10.69730        -0.001156     -0.001156     -0.004537
      6.23865      6.23865     11.58685        -0.006861     -0.006861     -0.005693
      5.35006      5.35006      7.13420         0.001628      0.001628      0.003592
      6.24202      6.24202      8.02612         0.000406      0.000406     -0.000130
      7.13451      5.34976      8.91691         0.003715     -0.001477      0.002173
      8.02563      6.24218      9.80946        -0.001661     -0.000177      0.000105
      5.34976      7.13451      8.91691        -0.001477      0.003715      0.002173
      6.24218      8.02563      9.80946        -0.000177     -0.001661      0.000105
      7.13356      7.13356     10.70046         0.000034      0.000034     -0.000387
      8.02536      8.02536     11.59723        -0.003642     -0.003642      0.001584
      3.57439      3.57439      0.00483         0.002556      0.002556      0.006850
      4.45888      4.45888      0.89074         0.000439      0.000439     -0.005016
      5.35171      3.56925      1.78325        -0.000393      0.001458      0.003011
      6.24479      4.46687      2.66873         0.000226      0.002552     -0.000824
      3.56925      5.35171      1.78325         0.001458     -0.000393      0.003011
      4.46687      6.24479      2.66873         0.002552      0.000226     -0.000824
      5.35328      5.35328      3.56483         0.005393      0.005393     -0.001657
      6.24585      6.24585      4.45518         0.003340      0.003340      0.002159
     12.47444     12.47444     14.26571        -0.004469     -0.004469      0.002269
      6.24437      6.24437      0.84831        -0.005388     -0.005388     -0.011886
      7.14289     12.50074      8.90187        -0.000133      0.000198     -0.000135
      8.03668      6.26153      2.66065         0.003016     -0.004291      0.000482
     12.50074      7.14289      8.90187         0.000198     -0.000133     -0.000135
      6.26153      8.03668      2.66065        -0.004291      0.003016      0.000482
      7.13878      7.13878      3.55939         0.003299      0.003299     -0.000723
      8.02707      8.02707      4.45489        -0.000763     -0.000763      0.000027
      7.13629     10.70194     10.70194         0.002283      0.001186      0.001186
      8.02685      4.45911      4.45911         0.000818      0.000071      0.000071
      8.91456      3.57009      5.34697        -0.002930      0.001986     -0.002524
      9.80862      4.45785      6.24289        -0.000052      0.001219     -0.004418
      7.13420      5.35006      5.35006         0.003592      0.001628      0.001628
      8.02612      6.24202      6.24202        -0.000130      0.000406      0.000406
      8.91691      5.34976      7.13451         0.002173     -0.001477      0.003715
      9.80946      6.24218      8.02563         0.000105     -0.000177     -0.001661
      8.91456      5.34697      3.57009        -0.002930     -0.002524      0.001986
      9.80862      6.24289      4.45785        -0.000052     -0.004418      0.001219
     10.69730      5.34953      5.34953        -0.004537     -0.001156     -0.001156
     11.58685      6.23865      6.23865        -0.005693     -0.006861     -0.006861
      8.91691      7.13451      5.34976         0.002173      0.003715     -0.001477
      9.80946      8.02563      6.24218         0.000105     -0.001661     -0.000177
     10.70046      7.13356      7.13356        -0.000387      0.000034      0.000034
     11.59723      8.02536      8.02536         0.001584     -0.003642     -0.003642
     10.70194      7.13629     10.70194         0.001186      0.002283      0.001186
      4.45911      8.02685      4.45911         0.000071      0.000818      0.000071
      5.35006      7.13420      5.35006         0.001628      0.003592      0.001628
      6.24202      8.02612      6.24202         0.000406     -0.000130      0.000406
      3.57009      8.91456      5.34697         0.001986     -0.002930     -0.002524
      4.45785      9.80862      6.24289         0.001219     -0.000052     -0.004418
      5.34976      8.91691      7.13451        -0.001477      0.002173      0.003715
      6.24218      9.80946      8.02563        -0.000177      0.000105     -0.001661
      5.34697      8.91456      3.57009        -0.002524     -0.002930      0.001986
      6.24289      9.80862      4.45785        -0.004418     -0.000052      0.001219
      7.13451      8.91691      5.34976         0.003715      0.002173     -0.001477
      8.02563      9.80946      6.24218        -0.001661      0.000105     -0.000177
      5.34953     10.69730      5.34953        -0.001156     -0.004537     -0.001156
      6.23865     11.58685      6.23865        -0.006861     -0.005693     -0.006861
      7.13356     10.70046      7.13356         0.000034     -0.000387      0.000034
      8.02536     11.59723      8.02536        -0.003642      0.001584     -0.003642
      7.13370      7.13370      7.13370         0.001750      0.001750      0.001750
      8.02581      8.02581      8.02581        -0.000095     -0.000095     -0.000095
      8.91791      7.13401      8.91791         0.002100     -0.001796      0.002100
      9.80980      8.02632      9.80980        -0.000352     -0.000824     -0.000352
      7.13401      8.91791      8.91791        -0.001796      0.002100      0.002100
      8.02632      9.80980      9.80980        -0.000824     -0.000352     -0.000352
      8.91761      8.91761     10.70242        -0.001472     -0.001472      0.000441
      9.80890      9.80890     11.59375        -0.001010     -0.001010     -0.003871
      8.91791      8.91791      7.13401         0.002100      0.002100     -0.001796
      9.80980      9.80980      8.02632        -0.000352     -0.000352     -0.000824
     10.70242      8.91761      8.91761         0.000441     -0.001472     -0.001472
     11.59375      9.80890      9.80890        -0.003871     -0.001010     -0.001010
      8.91761     10.70242      8.91761        -0.001472      0.000441     -0.001472
      9.80890     11.59375      9.80890        -0.001010     -0.003871     -0.001010
     10.70003     10.70003     10.70003        -0.003197     -0.003197     -0.003197
     11.59137     11.59137     11.59137        -0.003878     -0.003878     -0.003878
     14.17966     14.17966     14.17966        -0.013657     -0.013657     -0.013657
 -----------------------------------------------------------------------------------
    total drift:                               -0.002122     -0.002121     -0.002122


--------------------------------------------------------------------------------------------------------



  FREE ENERGIE OF THE ION-ELECTRON SYSTEM (eV)
  ---------------------------------------------------
  free  energy   TOTEN  =     -1121.52103365 eV

  energy  without entropy=    -1121.53262948  energy(sigma->0) =    -1121.52489893
 
 d Force = 0.7219948E-03[-0.175E-04, 0.146E-02]  d Energy = 0.7163370E-03 0.566E-05
 d Force = 0.4020206E+00[ 0.400E+00, 0.404E+00]  d Ewald  = 0.4020213E+00-0.680E-06


--------------------------------------------------------------------------------------------------------


    POTLOK:  cpu time    0.10: real time    0.10


--------------------------------------------------------------------------------------------------------




--------------------------------------------------------------------------------------------------------


  
 reached required accuracy - stopping structural energy minimisation
 writing wavefunctions
     LOOP+:  cpu time   12.31: real time   12.71
    4ORBIT:  cpu time    0.00: real time    0.00

 total amount of memory used by VASP on root node    67073. kBytes
========================================================================

   base      :      30000. kBytes
   nonl-proj :      15944. kBytes
   fftplans  :       1813. kBytes
   grid      :      13331. kBytes
   one-center:       2950. kBytes
   wavefun   :       3035. kBytes
 
  
  
 General timing and accounting informations for this job:
 ========================================================
  
                  Total CPU time used (sec):       45.195
                            User time (sec):       44.615
                          System time (sec):        0.580
                         Elapsed time (sec):       46.614
  
                   Maximum memory used (kb):      107308.
                   Average memory used (kb):           0.
  
                          Minor page faults:        14458
                          Major page faults:            0
                 Voluntary context switches:          827
