 vasp.5.3.6 23Jan15 (build Feb 02 2016 19:35:31) gamma-only                     
  
 executed on           IFC91_ompi date 2016.04.07  19:53:33
 running on   16 total cores
 distrk:  each k-point on   16 cores,    1 groups
 distr:  one band on NCORES_PER_BAND=   1 cores,   16 groups


--------------------------------------------------------------------------------------------------------


 INCAR:
 POTCAR:    PAW_PBE C_GW_new 19Mar2012            
 POTCAR:    PAW_PBE Ge_GW 04Okt2005               

 ----------------------------------------------------------------------------- 
|                                                                             |
|           W    W    AA    RRRRR   N    N  II  N    N   GGGG   !!!           |
|           W    W   A  A   R    R  NN   N  II  NN   N  G    G  !!!           |
|           W    W  A    A  R    R  N N  N  II  N N  N  G       !!!           |
|           W WW W  AAAAAA  RRRRR   N  N N  II  N  N N  G  GGG   !            |
|           WW  WW  A    A  R   R   N   NN  II  N   NN  G    G                |
|           W    W  A    A  R    R  N    N  II  N    N   GGGG   !!!           |
|                                                                             |
|      For optimal performance we recommend to set                            |
|        NCORE= 4 - approx SQRT( number of cores)                             |
|      NCORE specifies how many cores store one orbital (NPAR=cpu/NCORE).     |
|      This setting can  greatly improve the performance of VASP for DFT.     |
|      The default, NPAR=number of cores might be grossly inefficient         |
|      on modern multi-core architectures or massively parallel machines.     |
|      Do your own testing !!!!                                               |
|      Unfortunately you need to use the default for GW and RPA calculations. |
|      (for HF NCORE is supported but not extensively tested yet)             |
|                                                                             |
 ----------------------------------------------------------------------------- 

 POTCAR:    PAW_PBE C_GW_new 19Mar2012            
   VRHFIN =C: s2p2                                                              
   LEXCH  = PE                                                                  
   EATOM  =   147.1560 eV,   10.8157 Ry                                         
                                                                                
   TITEL  = PAW_PBE C_GW_new 19Mar2012                                          
   LULTRA =        F    use ultrasoft PP ?                                      
   IUNSCR =        1    unscreen: 0-lin 1-nonlin 2-no                           
   RPACOR =    0.800    partial core radius                                     
   POMASS =   12.011; ZVAL   =    4.000    mass and valenz                      
   RCORE  =    1.600    outmost cutoff radius                                   
   RWIGS  =    1.600; RWIGS  =    0.847    wigner-seitz radius (au A)           
   ENMAX  =  413.992; ENMIN  =  310.494 eV                                      
   ICORE  =        3    local potential                                         
   LCOR   =        T    correct aug charges                                     
   LPAW   =        T    paw PP                                                  
   EAUG   = 1213.930                                                            
   DEXC   =    0.000                                                            
   RMAX   =    1.630    core radius for proj-oper                               
   RAUG   =    1.300    factor for augmentation sphere                          
   RDEP   =    1.601    radius for radial grids                                 
   RDEPT  =    1.200    core radius for aug-charge                              
                                                                                
   Atomic configuration                                                         
    5 entries                                                                   
     n  l   j            E        occ.                                          
     1  0  0.50      -273.3789   2.0000                                         
     2  0  0.50       -13.7508   2.0000                                         
     2  1  0.50        -5.2854   2.0000                                         
     3  2  1.50        -5.4423   0.0000                                         
     4  3  2.50        -5.4423   0.0000                                         
   Description                                                                  
     l       E           TYP  RCUT    TYP  RCUT                                 
     0    -13.7508457     23  1.200                                             
     0     -7.5219285     23  1.200                                             
     0    272.1165200     23  1.300                                             
     1     -5.2854382     23  1.500                                             
     1    108.8466080     23  1.500                                             
     2     27.2116520     23  1.500                                             
     2    190.4815640     23  1.600                                             
     3     54.4233040     23  1.400                                             
  local pseudopotential read in
  partial core-charges read in
  partial kinetic energy density read in
  kinetic energy density of atom read in
  atomic valenz-charges read in
  non local Contribution for L=           0  read in
    real space projection operators read in
  non local Contribution for L=           0  read in
    real space projection operators read in
  non local Contribution for L=           0  read in
    real space projection operators read in
  non local Contribution for L=           1  read in
    real space projection operators read in
  non local Contribution for L=           1  read in
    real space projection operators read in
  non local Contribution for L=           2  read in
    real space projection operators read in
  non local Contribution for L=           2  read in
    real space projection operators read in
    PAW grid and wavefunctions read in
 
   number of l-projection  operators is LMAX  =           7
   number of lm-projection operators is LMMAX =          19
 
 POTCAR:    PAW_PBE Ge_GW 04Okt2005               
   VRHFIN =Ge: s2p2                                                             
   LEXCH  = PE                                                                  
   EATOM  =   104.9960 eV,    7.7170 Ry                                         
                                                                                
   TITEL  = PAW_PBE Ge_GW 04Okt2005                                             
   LULTRA =        F    use ultrasoft PP ?                                      
   IUNSCR =        1    unscreen: 0-lin 1-nonlin 2-no                           
   RPACOR =    2.170    partial core radius                                     
   POMASS =   72.610; ZVAL   =    4.000    mass and valenz                      
   RCORE  =    2.300    outmost cutoff radius                                   
   RWIGS  =    2.300; RWIGS  =    1.217    wigner-seitz radius (au A)           
   ENMAX  =  173.807; ENMIN  =  130.355 eV                                      
   ICORE  =        3    local potential                                         
   LCOR   =        T    correct aug charges                                     
   LPAW   =        T    paw PP                                                  
   EAUG   =  385.843                                                            
   DEXC   =    0.000                                                            
   RMAX   =    2.342    core radius for proj-oper                               
   RAUG   =    1.300    factor for augmentation sphere                          
   RDEP   =    2.318    radius for radial grids                                 
   RDEPT  =    2.103    core radius for aug-charge                              
                                                                                
   Atomic configuration                                                         
   10 entries                                                                   
     n  l   j            E        occ.                                          
     1  0  0.50    -10959.8463   2.0000                                         
     2  0  0.50     -1371.6056   2.0000                                         
     2  1  1.50     -1198.4791   6.0000                                         
     3  0  0.50      -168.4733   2.0000                                         
     3  1  1.50      -115.6019   6.0000                                         
     3  2  2.50       -29.3106  10.0000                                         
     4  0  0.50       -11.7309   2.0000                                         
     4  1  0.50        -3.8952   2.0000                                         
     4  2  1.50        -4.0817   0.0000                                         
     4  3  2.50        -4.0817   0.0000                                         
   Description                                                                  
     l       E           TYP  RCUT    TYP  RCUT                                 
     0    -11.7309491     23  2.300                                             
     0     54.4233040     23  2.300                                             
     1     -3.8952258     23  2.300                                             
     1     81.6349560     23  2.300                                             
     2     -4.0817478     23  2.300                                             
     3     -1.3605826      7  2.300                                             
  local pseudopotential read in
  partial core-charges read in
  partial kinetic energy density read in
  kinetic energy density of atom read in
  atomic valenz-charges read in
  non local Contribution for L=           0  read in
    real space projection operators read in
  non local Contribution for L=           0  read in
    real space projection operators read in
  non local Contribution for L=           1  read in
    real space projection operators read in
  non local Contribution for L=           1  read in
    real space projection operators read in
  non local Contribution for L=           2  read in
    real space projection operators read in
    PAW grid and wavefunctions read in
 
   number of l-projection  operators is LMAX  =           5
   number of lm-projection operators is LMMAX =          13
 
 Optimization of the real space projectors (new method)

 maximal supplied QI-value         = 23.62
 optimisation between [QCUT,QGAM] = [ 10.16, 20.31] = [ 28.89,115.56] Ry 
 Optimized for a Real-space Cutoff    1.80 Angstroem

   l    n(q)    QCUT    max X(q) W(low)/X(q) W(high)/X(q)  e(spline) 
   0     11    10.157    88.457    0.43E-03    0.10E-02    0.15E-04
   0     11    10.157    66.567    0.43E-03    0.10E-02    0.15E-04
   0     11    10.157     0.672    0.27E-03    0.61E-03    0.83E-05
   1     11    10.157     2.978    0.64E-06    0.34E-05    0.30E-06
   1     11    10.157     2.423    0.27E-04    0.25E-04    0.10E-05
   2     10    10.157     2.026    0.25E-05    0.27E-04    0.92E-06
   2     10    10.157     1.903    0.13E-04    0.84E-04    0.14E-05
 Optimization of the real space projectors (new method)

 maximal supplied QI-value         = 16.25
 optimisation between [QCUT,QGAM] = [ 10.24, 20.48] = [ 29.35,117.42] Ry 
 Optimized for a Real-space Cutoff    1.26 Angstroem

   l    n(q)    QCUT    max X(q) W(low)/X(q) W(high)/X(q)  e(spline) 
   0      8    10.239    11.876    0.39E-04    0.12E-03    0.41E-07
   0      8    10.239     5.687    0.14E-03    0.27E-03    0.89E-07
   1      7    10.239     6.266    0.27E-03    0.16E-03    0.47E-07
   1      7    10.239     2.088    0.43E-03    0.33E-03    0.60E-07
   2      7    10.239     4.673    0.32E-03    0.25E-03    0.41E-07
  PAW_PBE C_GW_new 19Mar2012            :
 energy of atom  1       EATOM= -147.1560
 kinetic energy error for atom=    0.0288 (will be added to EATOM!!)
  PAW_PBE Ge_GW 04Okt2005               :
 energy of atom  2       EATOM= -104.9960
 kinetic energy error for atom=    0.0003 (will be added to EATOM!!)
 
 
 POSCAR: C                                       
  positions in cartesian coordinates
  No initial velocities read in
 exchange correlation table for  LEXCH =        8
   RHO(1)=    0.500       N(1)  =     2000
   RHO(2)=  100.500       N(2)  =     4000
 


--------------------------------------------------------------------------------------------------------


 ion  position               nearest neighbor table
   1  0.000  0.000  0.000-   2 1.54  20 1.54  38 1.54  74 1.54
   2  0.062  0.062  0.062-   1 1.54   3 1.54   5 1.54   9 1.54
   3  0.000  0.000  0.250-   2 1.54   4 1.54  40 1.54  76 1.54
   4  0.062  0.062  0.312-   3 1.54   7 1.54  11 1.54  17 1.54
   5  0.000  0.250  0.000-   2 1.54   6 1.54  24 1.54  78 1.54
   6  0.062  0.312  0.062-   5 1.54   7 1.54  13 1.54  33 1.54
   7  0.000  0.250  0.250-   4 1.54   6 1.54   8 1.54  80 1.54
   8  0.062  0.312  0.312-   7 1.54  15 1.54  21 1.54  35 1.54
   9  0.250  0.000  0.000-   2 1.54  10 1.54  28 1.54  46 1.54
  10  0.312  0.062  0.062-   9 1.54  11 1.54  13 1.54  65 1.54
  11  0.250  0.000  0.250-   4 1.54  10 1.54  12 1.54  48 1.54
  12  0.312  0.062  0.312-  11 1.54  15 1.54  25 1.54  67 1.54
  13  0.250  0.250  0.000-   6 1.54  10 1.54  14 1.54  32 1.54
  14  0.312  0.312  0.062-  13 1.54  15 1.54  41 1.54  69 1.54
  15  0.250  0.250  0.250-   8 1.54  12 1.54  14 1.54  16 1.54
  16  0.312  0.312  0.312-  15 1.54  29 1.54  43 1.54  71 1.54
  17  0.000  0.000  0.500-   4 1.54  18 1.54  54 1.54  90 1.54
  18  0.062  0.062  0.562-  17 1.54  19 1.54  21 1.54  25 1.54
  19  0.000  0.000  0.750-  18 1.54  20 1.54  56 1.54  92 1.54
  20  0.062  0.062  0.812-   1 1.54  19 1.54  23 1.54  27 1.54
  21  0.000  0.250  0.500-   8 1.54  18 1.54  22 1.54  94 1.54
  22  0.062  0.312  0.562-  21 1.54  23 1.54  29 1.54  49 1.54
  23  0.000  0.250  0.750-  20 1.54  22 1.54  24 1.54  96 1.54
  24  0.062  0.312  0.812-   5 1.54  23 1.54  31 1.54  51 1.54
  25  0.250  0.000  0.500-  12 1.54  18 1.54  26 1.54  62 1.54
  26  0.312  0.062  0.562-  25 1.54  27 1.54  29 1.54  81 1.54
  27  0.250  0.000  0.750-  20 1.54  26 1.54  28 1.54  64 1.54
  28  0.312  0.062  0.812-   9 1.54  27 1.54  31 1.54  83 1.54
  29  0.250  0.250  0.500-  16 1.54  22 1.54  26 1.54  30 1.54
  30  0.312  0.312  0.562-  29 1.54  31 1.54  57 1.54  85 1.54
  31  0.250  0.250  0.750-  24 1.54  28 1.54  30 1.54  32 1.54
  32  0.312  0.312  0.812-  13 1.54  31 1.54  59 1.54  87 1.54
  33  0.000  0.500  0.000-   6 1.54  34 1.54  52 1.54 106 1.54
  34  0.062  0.562  0.062-  33 1.54  35 1.54  37 1.54  41 1.54
  35  0.000  0.500  0.250-   8 1.54  34 1.54  36 1.54 108 1.54
  36  0.062  0.562  0.312-  35 1.54  39 1.54  43 1.54  49 1.54
  37  0.000  0.750  0.000-  34 1.54  38 1.54  56 1.54 110 1.54
  38  0.062  0.812  0.062-   1 1.54  37 1.54  39 1.54  45 1.54
  39  0.000  0.750  0.250-  36 1.54  38 1.54  40 1.54 112 1.54
  40  0.062  0.812  0.312-   3 1.54  39 1.54  47 1.54  53 1.54
  41  0.250  0.500  0.000-  14 1.54  34 1.54  42 1.54  60 1.54
  42  0.312  0.562  0.062-  41 1.54  43 1.54  45 1.54  97 1.54
  43  0.250  0.500  0.250-  16 1.54  36 1.54  42 1.54  44 1.54
  44  0.312  0.562  0.312-  43 1.54  47 1.54  57 1.54  99 1.54
  45  0.250  0.750  0.000-  38 1.54  42 1.54  46 1.54  64 1.54
  46  0.312  0.812  0.062-   9 1.54  45 1.54  47 1.54 101 1.54
  47  0.250  0.750  0.250-  40 1.54  44 1.54  46 1.54  48 1.54
  48  0.312  0.812  0.312-  11 1.54  47 1.54  61 1.54 103 1.54
  49  0.000  0.500  0.500-  22 1.54  36 1.54  50 1.54 120 1.54
  50  0.062  0.562  0.562-  49 1.54  51 1.54  53 1.54  57 1.54
  51  0.000  0.500  0.750-  24 1.54  50 1.54  52 1.54 122 1.54
  52  0.062  0.562  0.812-  33 1.54  51 1.54  55 1.54  59 1.54
  53  0.000  0.750  0.500-  40 1.54  50 1.54  54 1.54 124 1.54
  54  0.062  0.812  0.562-  17 1.54  53 1.54  55 1.54  61 1.54
  55  0.000  0.750  0.750-  52 1.54  54 1.54  56 1.54 126 1.54
  56  0.062  0.812  0.812-  19 1.54  37 1.54  55 1.54  63 1.54
  57  0.250  0.500  0.500-  30 1.54  44 1.54  50 1.54  58 1.54
  58  0.312  0.562  0.562-  57 1.54  59 1.54  61 1.54 127 1.54
  59  0.250  0.500  0.750-  32 1.54  52 1.54  58 1.54  60 1.54
  60  0.312  0.562  0.812-  41 1.54  59 1.54  63 1.54 113 1.54
  61  0.250  0.750  0.500-  48 1.54  54 1.54  58 1.54  62 1.54
  62  0.312  0.812  0.562-  25 1.54  61 1.54  63 1.54 115 1.54
  63  0.250  0.750  0.750-  56 1.54  60 1.54  62 1.54  64 1.54
  64  0.312  0.812  0.812-  27 1.54  45 1.54  63 1.54 117 1.54
  65  0.500  0.000  0.000-  10 1.54  66 1.54  84 1.54 102 1.54
  66  0.562  0.062  0.062-  65 1.54  67 1.54  69 1.54  73 1.54
  67  0.500  0.000  0.250-  12 1.54  66 1.54  68 1.54 104 1.54
  68  0.562  0.062  0.312-  67 1.54  71 1.54  75 1.54  81 1.54
  69  0.500  0.250  0.000-  14 1.54  66 1.54  70 1.54  88 1.54
  70  0.562  0.312  0.062-  69 1.54  71 1.54  77 1.54  97 1.54
  71  0.500  0.250  0.250-  16 1.54  68 1.54  70 1.54  72 1.54
  72  0.562  0.312  0.312-  71 1.54  79 1.54  85 1.54  99 1.54
  73  0.750  0.000  0.000-  66 1.54  74 1.54  92 1.54 110 1.54
  74  0.812  0.062  0.062-   1 1.54  73 1.54  75 1.54  77 1.54
  75  0.750  0.000  0.250-  68 1.54  74 1.54  76 1.54 112 1.54
  76  0.812  0.062  0.312-   3 1.54  75 1.54  79 1.54  89 1.54
  77  0.750  0.250  0.000-  70 1.54  74 1.54  78 1.54  96 1.54
  78  0.812  0.312  0.062-   5 1.54  77 1.54  79 1.54 105 1.54
  79  0.750  0.250  0.250-  72 1.54  76 1.54  78 1.54  80 1.54
  80  0.812  0.312  0.312-   7 1.54  79 1.54  93 1.54 107 1.54
  81  0.500  0.000  0.500-  26 1.54  68 1.54  82 1.54 116 1.54
  82  0.562  0.062  0.562-  81 1.54  83 1.54  85 1.54  89 1.54
  83  0.500  0.000  0.750-  28 1.54  82 1.54  84 1.54 118 1.54
  84  0.562  0.062  0.812-  65 1.54  83 1.54  87 1.54  91 1.54
  85  0.500  0.250  0.500-  30 1.54  72 1.54  82 1.54  86 1.54
  86  0.562  0.312  0.562-  85 1.54  87 1.54  93 1.54 127 1.54
  87  0.500  0.250  0.750-  32 1.54  84 1.54  86 1.54  88 1.54
  88  0.562  0.312  0.812-  69 1.54  87 1.54  95 1.54 113 1.54
  89  0.750  0.000  0.500-  76 1.54  82 1.54  90 1.54 124 1.54
  90  0.812  0.062  0.562-  17 1.54  89 1.54  91 1.54  93 1.54
  91  0.750  0.000  0.750-  84 1.54  90 1.54  92 1.54 126 1.54
  92  0.812  0.062  0.812-  19 1.54  73 1.54  91 1.54  95 1.54
  93  0.750  0.250  0.500-  80 1.54  86 1.54  90 1.54  94 1.54
  94  0.812  0.312  0.562-  21 1.54  93 1.54  95 1.54 119 1.54
  95  0.750  0.250  0.750-  88 1.54  92 1.54  94 1.54  96 1.54
  96  0.812  0.312  0.812-  23 1.54  77 1.54  95 1.54 121 1.54
  97  0.500  0.500  0.000-  42 1.54  70 1.54  98 1.54 114 1.54
  98  0.562  0.562  0.062-  97 1.54  99 1.54 101 1.54 105 1.54
  99  0.500  0.500  0.250-  44 1.54  72 1.54  98 1.54 100 1.54
 100  0.562  0.562  0.312-  99 1.54 103 1.54 107 1.54 127 1.54
 101  0.500  0.750  0.000-  46 1.54  98 1.54 102 1.54 118 1.54
 102  0.562  0.812  0.062-  65 1.54 101 1.54 103 1.54 109 1.54
 103  0.500  0.750  0.250-  48 1.54 100 1.54 102 1.54 104 1.54
 104  0.562  0.812  0.312-  67 1.54 103 1.54 111 1.54 115 1.54
 105  0.750  0.500  0.000-  78 1.54  98 1.54 106 1.54 122 1.54
 106  0.812  0.562  0.062-  33 1.54 105 1.54 107 1.54 109 1.54
 107  0.750  0.500  0.250-  80 1.54 100 1.54 106 1.54 108 1.54
 108  0.812  0.562  0.312-  35 1.54 107 1.54 111 1.54 119 1.54
 109  0.750  0.750  0.000- 102 1.54 106 1.54 110 1.54 126 1.54
 110  0.812  0.812  0.062-  37 1.54  73 1.54 109 1.54 111 1.54
 111  0.750  0.750  0.250- 104 1.54 108 1.54 110 1.54 112 1.54
 112  0.812  0.812  0.312-  39 1.54  75 1.54 111 1.54 123 1.54
 113  0.500  0.500  0.750-  60 1.54  88 1.54 114 1.54
 114  0.562  0.562  0.812-  97 1.54 113 1.54 117 1.54 121 1.54
 115  0.500  0.750  0.500-  62 1.54 104 1.54 116 1.54
 116  0.562  0.812  0.562-  81 1.54 115 1.54 117 1.54 123 1.54
 117  0.500  0.750  0.750-  64 1.54 114 1.54 116 1.54 118 1.54
 118  0.562  0.812  0.812-  83 1.54 101 1.54 117 1.54 125 1.54
 119  0.750  0.500  0.500-  94 1.54 108 1.54 120 1.54
 120  0.812  0.562  0.562-  49 1.54 119 1.54 121 1.54 123 1.54
 121  0.750  0.500  0.750-  96 1.54 114 1.54 120 1.54 122 1.54
 122  0.812  0.562  0.812-  51 1.54 105 1.54 121 1.54 125 1.54
 123  0.750  0.750  0.500- 112 1.54 116 1.54 120 1.54 124 1.54
 124  0.812  0.812  0.562-  53 1.54  89 1.54 123 1.54 125 1.54
 125  0.750  0.750  0.750- 118 1.54 122 1.54 124 1.54 126 1.54
 126  0.812  0.812  0.812-  55 1.54  91 1.54 109 1.54 125 1.54
 127  0.500  0.500  0.500-  58 1.54  86 1.54 100 1.54
 
  LATTYP: Found a face centered cubic cell.
 ALAT       =    14.2684036126
  
  Lattice vectors:
  
 A1 = (   7.1342018063,   7.1342018063,   0.0000000000)
 A2 = (   0.0000000000,   7.1342018063,   7.1342018063)
 A3 = (   7.1342018063,   0.0000000000,   7.1342018063)


Analysis of symmetry for initial positions (statically):
=====================================================================
 Subroutine PRICEL returns:
 Original cell was already a primitive cell.
 

 Routine SETGRP: Setting up the symmetry group for a 
 face centered cubic supercell.


 Subroutine GETGRP returns: Found  6 space group operations
 (whereof  6 operations were pure point group operations)
 out of a pool of 48 trial point group operations.


The static configuration has the point symmetry C_3v.


Analysis of symmetry for dynamics (positions and initial velocities):
=====================================================================
 Subroutine PRICEL returns:
 Original cell was already a primitive cell.
 

 Routine SETGRP: Setting up the symmetry group for a 
 face centered cubic supercell.


 Subroutine GETGRP returns: Found  6 space group operations
 (whereof  6 operations were pure point group operations)
 out of a pool of 48 trial point group operations.


The dynamic configuration has the point symmetry C_3v.
 
 
 KPOINTS: Automatically generated mesh            

Automatic generation of k-mesh.
Space group operators:
 irot       det(A)        alpha          n_x          n_y          n_z        tau_x        tau_y        tau_z
    1     1.000000     0.000000     1.000000     0.000000     0.000000     0.000000     0.000000     0.000000
    2     1.000000   120.000000    -0.577350    -0.577350    -0.577350     0.000000     0.000000     0.000000
    3     1.000000   120.000000     0.577350     0.577350     0.577350     0.000000     0.000000     0.000000
    4    -1.000000   180.000000     0.707107    -0.707107     0.000000     0.000000     0.000000     0.000000
    5    -1.000000   180.000000     0.707107     0.000000    -0.707107     0.000000     0.000000     0.000000
    6    -1.000000   180.000000     0.000000    -0.707107     0.707107     0.000000     0.000000     0.000000
 
 Subroutine IBZKPT returns following result:
 ===========================================
 
 Found      1 irreducible k-points:
 
 Following reciprocal coordinates:
            Coordinates               Weight
  0.000000  0.000000  0.000000      1.000000
 
 Following cartesian coordinates:
            Coordinates               Weight
  0.000000  0.000000  0.000000      1.000000
 
 
 Subroutine IBZKPT_HF returns following result:
 ==============================================
 
 Found      1 k-points in 1st BZ
 the following      1 k-points will be used (e.g. in the exchange kernel)
 Following reciprocal coordinates:   # in IRBZ
  0.000000  0.000000  0.000000    1.00000000   1 t-inv F


--------------------------------------------------------------------------------------------------------




 Dimension of arrays:
   k-points           NKPTS =      1   k-points in BZ     NKDIM =      1   number of bands    NBANDS=    320
   number of dos      NEDOS =    301   number of ions     NIONS =    127
   non local maximal  LDIM  =      7   non local SUM 2l+1 LMDIM =     19
   total plane-waves  NPLWV = 125000
   max r-space proj   IRMAX =   4263   max aug-charges    IRDMAX=   9553
   dimension x,y,z NGX =    50 NGY =   50 NGZ =   50
   dimension x,y,z NGXF=   100 NGYF=  100 NGZF=  100
   support grid    NGXF=   100 NGYF=  100 NGZF=  100
   ions per type =             126   1
 NGX,Y,Z   is equivalent  to a cutoff of   8.24,  8.24,  8.24 a.u.
 NGXF,Y,Z  is equivalent  to a cutoff of  16.48, 16.48, 16.48 a.u.


 I would recommend the setting:
   dimension x,y,z NGX =    49 NGY =   49 NGZ =   49
 SYSTEM =  unknown system                          
 POSCAR =  C                                       

 Startparameter for this run:
   NWRITE =      2    write-flag & timer
   PREC   = normal    normal or accurate (medium, high low for compatibility)
   ISTART =      0    job   : 0-new  1-cont  2-samecut
   ICHARG =      2    charge: 1-file 2-atom 10-const
   ISPIN  =      1    spin polarized calculation?
   LNONCOLLINEAR =      F non collinear calculations
   LSORBIT =      F    spin-orbit coupling
   INIWAV =      1    electr: 0-lowe 1-rand  2-diag
   LASPH  =      F    aspherical Exc in radial PAW
   METAGGA=      F    non-selfconsistent MetaGGA calc.

 Electronic Relaxation 1
   ENCUT  =  400.0 eV  29.40 Ry    5.42 a.u.  16.45 16.45 16.45*2*pi/ulx,y,z
   ENINI  =  400.0     initial cutoff
   ENAUG  = 1213.9 eV  augmentation charge cutoff
   NELM   =     60;   NELMIN=  2; NELMDL= -5     # of ELM steps 
   EDIFF  = 0.1E-03   stopping-criterion for ELM
   LREAL  =      T    real-space projection
   NLSPLINE    = F    spline interpolate recip. space projectors
   LCOMPAT=      F    compatible to vasp.4.4
   GGA_COMPAT  = T    GGA compatible to vasp.4.4-vasp.4.6
   LMAXPAW     = -100 max onsite density
   LMAXMIX     =    2 max onsite mixed and CHGCAR
   VOSKOWN=      0    Vosko Wilk Nusair interpolation
   ROPT   =   -0.00050  -0.00050
 Ionic relaxation
   EDIFFG = 0.1E-02   stopping-criterion for IOM
   NSW    =    100    number of steps for IOM
   NBLOCK =      1;   KBLOCK =    100    inner block; outer block 
   IBRION =      2    ionic relax: 0-MD 1-quasi-New 2-CG
   NFREE  =      1    steps in history (QN), initial steepest desc. (CG)
   ISIF   =      0    stress and relaxation
   IWAVPR =     11    prediction:  0-non 1-charg 2-wave 3-comb
   ISYM   =      3    0-nonsym 1-usesym 2-fastsym
   LCORR  =      T    Harris-Foulkes like correction to forces

   POTIM  = 0.5000    time-step for ionic-motion
   TEIN   =    0.0    initial temperature
   TEBEG  =    0.0;   TEEND  =   0.0 temperature during run
   SMASS  =  -3.00    Nose mass-parameter (am)
   estimated Nose-frequenzy (Omega)   =  0.10E-29 period in steps =****** mass=  -0.233E-26a.u.
   SCALEE = 1.0000    scale energy and forces
   NPACO  =    256;   APACO  = 16.0  distance and # of slots for P.C.
   PSTRESS=    0.0 pullay stress

  Mass of Ions in am
   POMASS =  12.01 72.61
  Ionic Valenz
   ZVAL   =   4.00  4.00
  Atomic Wigner-Seitz radii
   RWIGS  =  -1.00 -1.00
  virtual crystal weights 
   VCA    =   1.00  1.00
   NELECT =     509.0000    total number of electrons
   NUPDOWN=      -1.0000    fix difference up-down

 DOS related values:
   EMIN   =  10.00;   EMAX   =-10.00  energy-range for DOS
   EFERMI =   0.00
   ISMEAR =     1;   SIGMA  =   0.20  broadening in eV -4-tet -1-fermi 0-gaus

 Electronic relaxation 2 (details)
   IALGO  =     58    algorithm
   LDIAG  =      T    sub-space diagonalisation (order eigenvalues)
   LSUBROT=      F    optimize rotation matrix (better conditioning)
   TURBO    =      0    0=normal 1=particle mesh
   IRESTART =      0    0=no restart 2=restart with 2 vectors
   NREBOOT  =      0    no. of reboots
   NMIN     =      0    reboot dimension
   EREF     =   0.00    reference energy to select bands
   IMIX   =      4    mixing-type and parameters
     AMIX     =   0.40;   BMIX     =  1.00
     AMIX_MAG =   1.60;   BMIX_MAG =  1.00
     AMIN     =   0.10
     WC   =   100.;   INIMIX=   1;  MIXPRE=   1;  MAXMIX= -45

 Intra band minimization:
   WEIMIN = 0.0010     energy-eigenvalue tresh-hold
   EBREAK =  0.78E-07  absolut break condition
   DEPER  =   0.30     relativ break condition  

   TIME   =   0.40     timestep for ELM

  volume/ion in A,a.u.               =       5.72        38.59
  Fermi-wavevector in a.u.,A,eV,Ry     =   1.454204  2.748047 28.772371  2.114710
  Thomas-Fermi vector in A             =   2.571382
 
 Write flags
   LWAVE  =      T    write WAVECAR
   LCHARG =      T    write CHGCAR
   LVTOT  =      F    write LOCPOT, total local potential
   LVHAR  =      F    write LOCPOT, Hartree potential only
   LELF   =      F    write electronic localiz. function (ELF)
   LORBIT =      0    0 simple, 1 ext, 2 COOP (PROOUT)


 Dipole corrections
   LMONO  =      F    monopole corrections only (constant potential shift)
   LDIPOL =      F    correct potential (dipole corrections)
   IDIPOL =      0    1-x, 2-y, 3-z, 4-all directions 
   EPSILON=  1.0000000 bulk dielectric constant

 Exchange correlation treatment:
   GGA     =    --    GGA type
   LEXCH   =     8    internal setting for exchange type
   VOSKOWN=      0    Vosko Wilk Nusair interpolation
   EXXOEP  =     0    0=HF, 1=EXX-LHF (local Hartree Fock) 2=EXX OEP
   LHFCALC =     T    Hartree Fock is set to
   LSYMGRAD=     F    symmetrize gradient (conserves proper symmetry)
   PRECFOCK=normal    Normal, Fast or Accurate (Low or Medium for compatibility)
   LRHFCALC=     F    long range Hartree Fock
   LRSCOR  =     F    long range correlation only (use DFT for short range part)
   LTHOMAS =     F    Thomas Fermi screening in HF
   LMODELHF=     F    short range full HF, long range fraction AEXX
   ENCUT4O =  -1.0   cutoff for four orbital integrals eV
   LMAXFOCK=     4    L truncation for augmentation on plane wave grid
   LMAXFOCKAE=  -1    L truncation for all-electron charge restoration on plane wave grid
   NMAXFOCKAE=   1    number of basis functions for all-electron charge restoration
   LFOCKAEDFT=     F  apply the AE augmentation even for DFT
   NKREDX  =     1    reduce k-point grid by
   NKREDY  =     1    reduce k-point grid by
   NKREDZ  =     1    reduce k-point grid by
   SHIFTRED=     F    shift reduced grid of Gamma
   HFKIDENT=     F    idential grid for each k-point
   ODDONLY =     F    use only odd q-grid points
   EVENONLY=     F    use only even q-grid points
   HFALPHA =   -1.0000 decay constant for conv. correction
   MCALPHA =    0.0000 extent of test-charge in conv. correction in multipole expansion
   AEXX    =    0.0000 exact exchange contribution
   HFSCREEN=    0.0000 screening length (either q_TF or 0.3 A-1)
   HFSCREENC=   0.0000 screening length for correlation (either q_TF or 0.3 A-1)
   HFRCUT  =    0.0000 spherical cutoff for potential kernel
   ALDAX   =    1.0000 LDA exchange part
   AGGAX   =    1.0000 GGA exchange part
   ALDAC   =    1.0000 LDA correlation
   AGGAC   =    1.0000 GGA correlation
   NBANDSGWLOW=     1    first orbital included in HF term
   ENCUTFOCK=  -1.0 apply spherical cutoff to Coloumb kernel
 Linear response parameters
   LEPSILON=     F    determine dielectric tensor
   LRPA    =     F    only Hartree local field effects (RPA)
   LNABLA  =     F    use nabla operator in PAW spheres
   LVEL    =     F    velocity operator in full k-point grid
   LINTERFAST=   F  fast interpolation
   KINTER  =     0    interpolate to denser k-point grid
   CSHIFT  =0.1000    complex shift for real part using Kramers Kronig
   OMEGAMAX=  -1.0    maximum frequency
   DEG_THRESHOLD= 0.2000000E-02 threshold for treating states as degnerate
   RTIME   =    0.100 relaxation time in fs

 Orbital magnetization related:
   ORBITALMAG=     F  switch on orbital magnetization
   LCHIMAG   =     F  perturbation theory with respect to B field
   DQ        =  0.001000  dq finite difference perturbation B field



--------------------------------------------------------------------------------------------------------


 conjugate gradient relaxation of ions
 charge density and potential will be updated during run
 non-spin polarized calculation
 Conjugate gradient for all bands (Freysoldt, et al. PRB 79, 241103 (2009))
 preconditioned conjugated gradient                                        
 perform sub-space diagonalisation
    before iterative eigenvector-optimisation
 modified Broyden-mixing scheme, WC =      100.0
 initial mixing is a Kerker type mixing with AMIX =  0.4000 and BMIX =      1.0000
 Hartree-type preconditioning will be used
 using additional bands           65
 real space projection scheme for non local part
 use partial core corrections
 no Harris-corrections to forces 
 use gradient corrections 
 use of overlap-Matrix (Vanderbilt PP)
 Methfessel and Paxton  Order N= 1 SIGMA  =   0.20


--------------------------------------------------------------------------------------------------------


  energy-cutoff  :      400.00
  volume of cell :      726.22
      direct lattice vectors                 reciprocal lattice vectors
     7.134201806  7.134201806  0.000000000     0.070084925  0.070084925 -0.070084925
     0.000000000  7.134201806  7.134201806    -0.070084925  0.070084925  0.070084925
     7.134201806  0.000000000  7.134201806     0.070084925 -0.070084925  0.070084925

  length of vectors
    10.089284951 10.089284951 10.089284951     0.121390651  0.121390651  0.121390651


 
 k-points in units of 2pi/SCALE and weight: Automatically generated mesh            
   0.00000000  0.00000000  0.00000000       1.000
 
 k-points in reciprocal lattice and weights: Automatically generated mesh            
   0.00000000  0.00000000  0.00000000       1.000
 
 position of ions in fractional coordinates (direct lattice) 
   0.00000000  0.00000000  0.00000000
   0.06250000  0.06250000  0.06250000
   0.00000000  0.00000000  0.25000000
   0.06250000  0.06250000  0.31250000
   0.00000000  0.25000000  0.00000000
   0.06250000  0.31250000  0.06250000
   0.00000000  0.25000000  0.25000000
   0.06250000  0.31250000  0.31250000
   0.25000000  0.00000000  0.00000000
   0.31250000  0.06250000  0.06250000
   0.25000000  0.00000000  0.25000000
   0.31250000  0.06250000  0.31250000
   0.25000000  0.25000000  0.00000000
   0.31250000  0.31250000  0.06250000
   0.25000000  0.25000000  0.25000000
   0.31250000  0.31250000  0.31250000
   0.00000000  0.00000000  0.50000000
   0.06250000  0.06250000  0.56250000
   0.00000000  0.00000000  0.75000000
   0.06250000  0.06250000  0.81250000
   0.00000000  0.25000000  0.50000000
   0.06250000  0.31250000  0.56250000
   0.00000000  0.25000000  0.75000000
   0.06250000  0.31250000  0.81250000
   0.25000000  0.00000000  0.50000000
   0.31250000  0.06250000  0.56250000
   0.25000000  0.00000000  0.75000000
   0.31250000  0.06250000  0.81250000
   0.25000000  0.25000000  0.50000000
   0.31250000  0.31250000  0.56250000
   0.25000000  0.25000000  0.75000000
   0.31250000  0.31250000  0.81250000
   0.00000000  0.50000000  0.00000000
   0.06250000  0.56250000  0.06250000
   0.00000000  0.50000000  0.25000000
   0.06250000  0.56250000  0.31250000
   0.00000000  0.75000000  0.00000000
   0.06250000  0.81250000  0.06250000
   0.00000000  0.75000000  0.25000000
   0.06250000  0.81250000  0.31250000
   0.25000000  0.50000000  0.00000000
   0.31250000  0.56250000  0.06250000
   0.25000000  0.50000000  0.25000000
   0.31250000  0.56250000  0.31250000
   0.25000000  0.75000000  0.00000000
   0.31250000  0.81250000  0.06250000
   0.25000000  0.75000000  0.25000000
   0.31250000  0.81250000  0.31250000
   0.00000000  0.50000000  0.50000000
   0.06250000  0.56250000  0.56250000
   0.00000000  0.50000000  0.75000000
   0.06250000  0.56250000  0.81250000
   0.00000000  0.75000000  0.50000000
   0.06250000  0.81250000  0.56250000
   0.00000000  0.75000000  0.75000000
   0.06250000  0.81250000  0.81250000
   0.25000000  0.50000000  0.50000000
   0.31250000  0.56250000  0.56250000
   0.25000000  0.50000000  0.75000000
   0.31250000  0.56250000  0.81250000
   0.25000000  0.75000000  0.50000000
   0.31250000  0.81250000  0.56250000
   0.25000000  0.75000000  0.75000000
   0.31250000  0.81250000  0.81250000
   0.50000000  0.00000000  0.00000000
   0.56250000  0.06250000  0.06250000
   0.50000000  0.00000000  0.25000000
   0.56250000  0.06250000  0.31250000
   0.50000000  0.25000000  0.00000000
   0.56250000  0.31250000  0.06250000
   0.50000000  0.25000000  0.25000000
   0.56250000  0.31250000  0.31250000
   0.75000000  0.00000000  0.00000000
   0.81250000  0.06250000  0.06250000
   0.75000000  0.00000000  0.25000000
   0.81250000  0.06250000  0.31250000
   0.75000000  0.25000000  0.00000000
   0.81250000  0.31250000  0.06250000
   0.75000000  0.25000000  0.25000000
   0.81250000  0.31250000  0.31250000
   0.50000000  0.00000000  0.50000000
   0.56250000  0.06250000  0.56250000
   0.50000000  0.00000000  0.75000000
   0.56250000  0.06250000  0.81250000
   0.50000000  0.25000000  0.50000000
   0.56250000  0.31250000  0.56250000
   0.50000000  0.25000000  0.75000000
   0.56250000  0.31250000  0.81250000
   0.75000000  0.00000000  0.50000000
   0.81250000  0.06250000  0.56250000
   0.75000000  0.00000000  0.75000000
   0.81250000  0.06250000  0.81250000
   0.75000000  0.25000000  0.50000000
   0.81250000  0.31250000  0.56250000
   0.75000000  0.25000000  0.75000000
   0.81250000  0.31250000  0.81250000
   0.50000000  0.50000000  0.00000000
   0.56250000  0.56250000  0.06250000
   0.50000000  0.50000000  0.25000000
   0.56250000  0.56250000  0.31250000
   0.50000000  0.75000000  0.00000000
   0.56250000  0.81250000  0.06250000
   0.50000000  0.75000000  0.25000000
   0.56250000  0.81250000  0.31250000
   0.75000000  0.50000000  0.00000000
   0.81250000  0.56250000  0.06250000
   0.75000000  0.50000000  0.25000000
   0.81250000  0.56250000  0.31250000
   0.75000000  0.75000000  0.00000000
   0.81250000  0.81250000  0.06250000
   0.75000000  0.75000000  0.25000000
   0.81250000  0.81250000  0.31250000
   0.50000000  0.50000000  0.75000000
   0.56250000  0.56250000  0.81250000
   0.50000000  0.75000000  0.50000000
   0.56250000  0.81250000  0.56250000
   0.50000000  0.75000000  0.75000000
   0.56250000  0.81250000  0.81250000
   0.75000000  0.50000000  0.50000000
   0.81250000  0.56250000  0.56250000
   0.75000000  0.50000000  0.75000000
   0.81250000  0.56250000  0.81250000
   0.75000000  0.75000000  0.50000000
   0.81250000  0.81250000  0.56250000
   0.75000000  0.75000000  0.75000000
   0.81250000  0.81250000  0.81250000
   0.50000000  0.50000000  0.50000000
 
 position of ions in cartesian coordinates  (Angst):
   0.00000000  0.00000000  0.00000000
   0.89177523  0.89177523  0.89177523
   1.78355045  0.00000000  1.78355045
   2.67532568  0.89177523  2.67532568
   0.00000000  1.78355045  1.78355045
   0.89177523  2.67532568  2.67532568
   1.78355045  1.78355045  3.56710090
   2.67532568  2.67532568  4.45887613
   1.78355045  1.78355045  0.00000000
   2.67532568  2.67532568  0.89177523
   3.56710090  1.78355045  1.78355045
   4.45887613  2.67532568  2.67532568
   1.78355045  3.56710090  1.78355045
   2.67532568  4.45887613  2.67532568
   3.56710090  3.56710090  3.56710090
   4.45887613  4.45887613  4.45887613
   3.56710090  0.00000000  3.56710090
   4.45887613  0.89177523  4.45887613
   5.35065135  0.00000000  5.35065135
   6.24242658  0.89177523  6.24242658
   3.56710090  1.78355045  5.35065135
   4.45887613  2.67532568  6.24242658
   5.35065135  1.78355045  7.13420181
   6.24242658  2.67532568  8.02597703
   5.35065135  1.78355045  3.56710090
   6.24242658  2.67532568  4.45887613
   7.13420181  1.78355045  5.35065135
   8.02597703  2.67532568  6.24242658
   5.35065135  3.56710090  5.35065135
   6.24242658  4.45887613  6.24242658
   7.13420181  3.56710090  7.13420181
   8.02597703  4.45887613  8.02597703
   0.00000000  3.56710090  3.56710090
   0.89177523  4.45887613  4.45887613
   1.78355045  3.56710090  5.35065135
   2.67532568  4.45887613  6.24242658
   0.00000000  5.35065135  5.35065135
   0.89177523  6.24242658  6.24242658
   1.78355045  5.35065135  7.13420181
   2.67532568  6.24242658  8.02597703
   1.78355045  5.35065135  3.56710090
   2.67532568  6.24242658  4.45887613
   3.56710090  5.35065135  5.35065135
   4.45887613  6.24242658  6.24242658
   1.78355045  7.13420181  5.35065135
   2.67532568  8.02597703  6.24242658
   3.56710090  7.13420181  7.13420181
   4.45887613  8.02597703  8.02597703
   3.56710090  3.56710090  7.13420181
   4.45887613  4.45887613  8.02597703
   5.35065135  3.56710090  8.91775226
   6.24242658  4.45887613  9.80952748
   3.56710090  5.35065135  8.91775226
   4.45887613  6.24242658  9.80952748
   5.35065135  5.35065135 10.70130271
   6.24242658  6.24242658 11.59307794
   5.35065135  5.35065135  7.13420181
   6.24242658  6.24242658  8.02597703
   7.13420181  5.35065135  8.91775226
   8.02597703  6.24242658  9.80952748
   5.35065135  7.13420181  8.91775226
   6.24242658  8.02597703  9.80952748
   7.13420181  7.13420181 10.70130271
   8.02597703  8.02597703 11.59307794
   3.56710090  3.56710090  0.00000000
   4.45887613  4.45887613  0.89177523
   5.35065135  3.56710090  1.78355045
   6.24242658  4.45887613  2.67532568
   3.56710090  5.35065135  1.78355045
   4.45887613  6.24242658  2.67532568
   5.35065135  5.35065135  3.56710090
   6.24242658  6.24242658  4.45887613
   5.35065135  5.35065135  0.00000000
   6.24242658  6.24242658  0.89177523
   7.13420181  5.35065135  1.78355045
   8.02597703  6.24242658  2.67532568
   5.35065135  7.13420181  1.78355045
   6.24242658  8.02597703  2.67532568
   7.13420181  7.13420181  3.56710090
   8.02597703  8.02597703  4.45887613
   7.13420181  3.56710090  3.56710090
   8.02597703  4.45887613  4.45887613
   8.91775226  3.56710090  5.35065135
   9.80952748  4.45887613  6.24242658
   7.13420181  5.35065135  5.35065135
   8.02597703  6.24242658  6.24242658
   8.91775226  5.35065135  7.13420181
   9.80952748  6.24242658  8.02597703
   8.91775226  5.35065135  3.56710090
   9.80952748  6.24242658  4.45887613
  10.70130271  5.35065135  5.35065135
  11.59307794  6.24242658  6.24242658
   8.91775226  7.13420181  5.35065135
   9.80952748  8.02597703  6.24242658
  10.70130271  7.13420181  7.13420181
  11.59307794  8.02597703  8.02597703
   3.56710090  7.13420181  3.56710090
   4.45887613  8.02597703  4.45887613
   5.35065135  7.13420181  5.35065135
   6.24242658  8.02597703  6.24242658
   3.56710090  8.91775226  5.35065135
   4.45887613  9.80952748  6.24242658
   5.35065135  8.91775226  7.13420181
   6.24242658  9.80952748  8.02597703
   5.35065135  8.91775226  3.56710090
   6.24242658  9.80952748  4.45887613
   7.13420181  8.91775226  5.35065135
   8.02597703  9.80952748  6.24242658
   5.35065135 10.70130271  5.35065135
   6.24242658 11.59307794  6.24242658
   7.13420181 10.70130271  7.13420181
   8.02597703 11.59307794  8.02597703
   8.91775226  7.13420181  8.91775226
   9.80952748  8.02597703  9.80952748
   7.13420181  8.91775226  8.91775226
   8.02597703  9.80952748  9.80952748
   8.91775226  8.91775226 10.70130271
   9.80952748  9.80952748 11.59307794
   8.91775226  8.91775226  7.13420181
   9.80952748  9.80952748  8.02597703
  10.70130271  8.91775226  8.91775226
  11.59307794  9.80952748  9.80952748
   8.91775226 10.70130271  8.91775226
   9.80952748 11.59307794  9.80952748
  10.70130271 10.70130271 10.70130271
  11.59307794 11.59307794 11.59307794
   7.13420181  7.13420181  7.13420181
 


--------------------------------------------------------------------------------------------------------


 use seriel FFT for wavefunctions x direction half grid
 k-point  1 :   0.0000 0.0000 0.0000  plane waves:    6662

 maximum and minimum number of plane-waves per node :      6662     6662

 maximum number of plane-waves:      6662
 maximum index in each direction: 
   IXMAX=   16   IYMAX=   16   IZMAX=   16
   IXMIN=    0   IYMIN=  -13   IZMIN=  -13

 WARNING: aliasing errors must be expected set NGX to  66 to avoid them
 WARNING: aliasing errors must be expected set NGY to  60 to avoid them
 WARNING: aliasing errors must be expected set NGZ to  60 to avoid them
 aliasing errors are usually negligible using standard VASP settings
 and one can safely disregard these warnings

 serial   3D FFT for wavefunctions
 parallel 3D FFT for charge:
    minimum data exchange during FFTs selected (reduces bandwidth)

 
 Radii for the augmentation spheres in the non-local exchange
 for species   1 augmentation radius   0.820 (default was   0.656)
       energy cutoff for augmentation   1600.0
 for species   2 augmentation radius   1.454 (default was   1.163)
       energy cutoff for augmentation   1600.0
  SETUP_FOCK is finished

 total amount of memory used by VASP on root node   148385. kBytes
========================================================================

   base      :      30000. kBytes
   nonlr-proj:      97698. kBytes
   fftplans  :       2864. kBytes
   grid      :       9016. kBytes
   one-center:       1100. kBytes
   HF        :        144. kBytes
   wavefun   :       7563. kBytes
 
     INWAV:  cpu time    0.0000: real time    0.0001
 Broyden mixing: mesh for mixing (old mesh)
   NGX = 33   NGY = 33   NGZ = 33
  (NGX  =100   NGY  =100   NGZ  =100)
  gives a total of  35937 points

 initial charge density was supplied:
 charge density of overlapping atoms calculated
 number of electron     508.0000000 magnetization 
 keeping initial charge density in first step


--------------------------------------------------------------------------------------------------------


 Maximum index for non-local projection operator         4124
 Maximum index for augmentation-charges          477 (set IRDMAX)


--------------------------------------------------------------------------------------------------------


 FEWALD executed in parallel
    FEWALD:  cpu time    0.0080: real time    0.0091


----------------------------------------- Iteration    1(   1)  ---------------------------------------


    POTLOK:  cpu time    0.0400: real time    0.0403
    SETDIJ:  cpu time   14.0249: real time   14.0491
    TRIAL :  cpu time    2.2561: real time    2.2665
    CORREC:  cpu time    0.0000: real time    0.0003
    --------------------------------------------
      LOOP:  cpu time   16.3250: real time   16.3591

 eigenvalue-minimisations  :   640
 total energy-change (2. order) : 0.4367676E+04  (-0.2873682E+05)
 number of electron     508.0000000 magnetization 
 augmentation part      508.0000000 magnetization 

 Free energy of the ion-electron system (eV)
  ---------------------------------------------------
  alpha Z        PSCENC =       370.25495035
  Ewald energy   TEWEN  =    -21956.58660455
  -Hartree energ DENC   =     -1198.80525489
  -exchange      EXHF   =         0.00000000
  -V(xc)+E(xc)   XCENC  =       960.23053442
  PAW double counting   =     14520.64172923   -13819.18057284
  entropy T*S    EENTRO =        -0.01830494
  eigenvalues    EBANDS =      6848.11323844
  atomic energy  EATOM  =     18643.02587779
  ---------------------------------------------------
  free energy    TOTEN  =      4367.67559303 eV

  energy without entropy =     4367.69389796  energy(sigma->0) =     4367.68169467
  exchange ACFDT corr.  =         0.00000000  see jH, gK, PRB 81, 115126


--------------------------------------------------------------------------------------------------------




----------------------------------------- Iteration    1(   2)  ---------------------------------------


    TRIAL :  cpu time    3.0922: real time    3.1010
    CORREC:  cpu time    0.0000: real time    0.0002
    --------------------------------------------
      LOOP:  cpu time    3.0922: real time    3.1025

 eigenvalue-minimisations  :   944
 total energy-change (2. order) :-0.5120122E+04  (-0.4826909E+04)
 number of electron     508.0000000 magnetization 
 augmentation part      508.0000000 magnetization 

 Free energy of the ion-electron system (eV)
  ---------------------------------------------------
  alpha Z        PSCENC =       370.25495035
  Ewald energy   TEWEN  =    -21956.58660455
  -Hartree energ DENC   =     -1198.80525489
  -exchange      EXHF   =         0.00000000
  -V(xc)+E(xc)   XCENC  =       960.23053442
  PAW double counting   =     14520.64172923   -13819.18057284
  entropy T*S    EENTRO =        -0.05641896
  eigenvalues    EBANDS =      1728.02975187
  atomic energy  EATOM  =     18643.02587779
  ---------------------------------------------------
  free energy    TOTEN  =      -752.44600757 eV

  energy without entropy =     -752.38958861  energy(sigma->0) =     -752.42720125
  exchange ACFDT corr.  =         0.00000000  see jH, gK, PRB 81, 115126


--------------------------------------------------------------------------------------------------------




----------------------------------------- Iteration    1(   3)  ---------------------------------------


    TRIAL :  cpu time    2.6962: real time    2.7026
    CORREC:  cpu time    0.0000: real time    0.0002
    --------------------------------------------
      LOOP:  cpu time    2.6962: real time    2.7047

 eigenvalue-minimisations  :   800
 total energy-change (2. order) :-0.3855023E+03  (-0.3803874E+03)
 number of electron     508.0000000 magnetization 
 augmentation part      508.0000000 magnetization 

 Free energy of the ion-electron system (eV)
  ---------------------------------------------------
  alpha Z        PSCENC =       370.25495035
  Ewald energy   TEWEN  =    -21956.58660455
  -Hartree energ DENC   =     -1198.80525489
  -exchange      EXHF   =         0.00000000
  -V(xc)+E(xc)   XCENC  =       960.23053442
  PAW double counting   =     14520.64172923   -13819.18057284
  entropy T*S    EENTRO =        -0.07158598
  eigenvalues    EBANDS =      1342.54262303
  atomic energy  EATOM  =     18643.02587779
  ---------------------------------------------------
  free energy    TOTEN  =     -1137.94830343 eV

  energy without entropy =    -1137.87671745  energy(sigma->0) =    -1137.92444144
  exchange ACFDT corr.  =         0.00000000  see jH, gK, PRB 81, 115126


--------------------------------------------------------------------------------------------------------




----------------------------------------- Iteration    1(   4)  ---------------------------------------


    TRIAL :  cpu time    2.7802: real time    2.7898
    CORREC:  cpu time    0.0000: real time    0.0003
    --------------------------------------------
      LOOP:  cpu time    2.7802: real time    2.7908

 eigenvalue-minimisations  :   832
 total energy-change (2. order) :-0.1308278E+02  (-0.1300018E+02)
 number of electron     508.0000000 magnetization 
 augmentation part      508.0000000 magnetization 

 Free energy of the ion-electron system (eV)
  ---------------------------------------------------
  alpha Z        PSCENC =       370.25495035
  Ewald energy   TEWEN  =    -21956.58660455
  -Hartree energ DENC   =     -1198.80525489
  -exchange      EXHF   =         0.00000000
  -V(xc)+E(xc)   XCENC  =       960.23053442
  PAW double counting   =     14520.64172923   -13819.18057284
  entropy T*S    EENTRO =        -0.08248175
  eigenvalues    EBANDS =      1329.47073488
  atomic energy  EATOM  =     18643.02587779
  ---------------------------------------------------
  free energy    TOTEN  =     -1151.03108735 eV

  energy without entropy =    -1150.94860560  energy(sigma->0) =    -1151.00359343
  exchange ACFDT corr.  =         0.00000000  see jH, gK, PRB 81, 115126


--------------------------------------------------------------------------------------------------------




----------------------------------------- Iteration    1(   5)  ---------------------------------------


    TRIAL :  cpu time    3.1722: real time    3.1842
    CORREC:  cpu time    0.0000: real time    0.0002
    CHARGE:  cpu time    0.0640: real time    0.0629
    --------------------------------------------
      LOOP:  cpu time    3.2362: real time    3.2483

 eigenvalue-minimisations  :   976
 total energy-change (2. order) :-0.4649004E+00  (-0.4639897E+00)
 number of electron     508.9999591 magnetization 
 augmentation part        7.1900831 magnetization 

 Free energy of the ion-electron system (eV)
  ---------------------------------------------------
  alpha Z        PSCENC =       370.25495035
  Ewald energy   TEWEN  =    -21956.58660455
  -Hartree energ DENC   =     -1198.80525489
  -exchange      EXHF   =         0.00000000
  -V(xc)+E(xc)   XCENC  =       960.23053442
  PAW double counting   =     14520.64172923   -13819.18057284
  entropy T*S    EENTRO =        -0.08252266
  eigenvalues    EBANDS =      1329.00587536
  atomic energy  EATOM  =     18643.02587779
  ---------------------------------------------------
  free energy    TOTEN  =     -1151.49598777 eV

  energy without entropy =    -1151.41346512  energy(sigma->0) =    -1151.46848022
  exchange ACFDT corr.  =         0.00000000  see jH, gK, PRB 81, 115126


--------------------------------------------------------------------------------------------------------




----------------------------------------- Iteration    1(   6)  ---------------------------------------


    POTLOK:  cpu time    0.0400: real time    0.0389
    SETDIJ:  cpu time   13.1128: real time   13.1390
    TRIAL :  cpu time    1.0641: real time    1.0684
    CORREC:  cpu time   13.4208: real time   13.4450
    CHARGE:  cpu time    0.0800: real time    0.0783
    --------------------------------------------
      LOOP:  cpu time   27.7177: real time   27.7711

 eigenvalue-minimisations  :     0
 total energy-change (2. order) : 0.6113339E+02  (-0.1370270E+02)
 number of electron     508.9999596 magnetization 
 augmentation part        5.6438848 magnetization 

 Free energy of the ion-electron system (eV)
  ---------------------------------------------------
  alpha Z        PSCENC =       370.25495035
  Ewald energy   TEWEN  =    -21956.58660455
  -Hartree energ DENC   =     -1942.22720457
  -exchange      EXHF   =         0.00000000
  -V(xc)+E(xc)   XCENC  =      1032.08223998
  PAW double counting   =     52084.43983415   -51404.07736710
  entropy T*S    EENTRO =        -0.08251802
  eigenvalues    EBANDS =      2082.80819422
  atomic energy  EATOM  =     18643.02587779
  ---------------------------------------------------
  free energy    TOTEN  =     -1090.36260238 eV

  energy without entropy =    -1090.28008435  energy(sigma->0) =    -1090.33509637
  exchange ACFDT corr.  =         0.00000000  see jH, gK, PRB 81, 115126


--------------------------------------------------------------------------------------------------------




----------------------------------------- Iteration    1(   7)  ---------------------------------------


    POTLOK:  cpu time    0.0400: real time    0.0389
    SETDIJ:  cpu time   13.4688: real time   13.4946
    TRIAL :  cpu time    1.0601: real time    1.0646
    CORREC:  cpu time   13.3368: real time   13.3609
    CHARGE:  cpu time    0.0760: real time    0.0782
    --------------------------------------------
      LOOP:  cpu time   27.9817: real time   28.0395

 eigenvalue-minimisations  :     0
 total energy-change (2. order) :-0.1369585E+02  (-0.1369393E+01)
 number of electron     508.9999597 magnetization 
 augmentation part        5.9902311 magnetization 

 Free energy of the ion-electron system (eV)
  ---------------------------------------------------
  alpha Z        PSCENC =       370.25495035
  Ewald energy   TEWEN  =    -21956.58660455
  -Hartree energ DENC   =     -1794.18351845
  -exchange      EXHF   =         0.00000000
  -V(xc)+E(xc)   XCENC  =      1021.87329591
  PAW double counting   =     51402.03632439   -50720.44639067
  entropy T*S    EENTRO =        -0.08247001
  eigenvalues    EBANDS =      1930.05013229
  atomic energy  EATOM  =     18643.02587779
  ---------------------------------------------------
  free energy    TOTEN  =     -1104.05845095 eV

  energy without entropy =    -1103.97598094  energy(sigma->0) =    -1104.03096095
  exchange ACFDT corr.  =         0.00000000  see jH, gK, PRB 81, 115126


--------------------------------------------------------------------------------------------------------




----------------------------------------- Iteration    1(   8)  ---------------------------------------


    POTLOK:  cpu time    0.0400: real time    0.0389
    SETDIJ:  cpu time   13.1288: real time   13.1521
    TRIAL :  cpu time    1.0601: real time    1.0632
    CORREC:  cpu time   13.4048: real time   13.5963
    CHARGE:  cpu time    0.0800: real time    0.0801
    --------------------------------------------
      LOOP:  cpu time   27.7137: real time   27.9333

 eigenvalue-minimisations  :     0
 total energy-change (2. order) :-0.1368896E+01  (-0.1897520E+00)
 number of electron     508.9999597 magnetization 
 augmentation part        6.1016401 magnetization 

 Free energy of the ion-electron system (eV)
  ---------------------------------------------------
  alpha Z        PSCENC =       370.25495035
  Ewald energy   TEWEN  =    -21956.58660455
  -Hartree energ DENC   =     -1765.51070976
  -exchange      EXHF   =         0.00000000
  -V(xc)+E(xc)   XCENC  =      1018.75165269
  PAW double counting   =     50859.87712316   -50177.64684091
  entropy T*S    EENTRO =        -0.08171660
  eigenvalues    EBANDS =      1902.48967383
  atomic energy  EATOM  =     18643.02587779
  ---------------------------------------------------
  free energy    TOTEN  =     -1105.42734740 eV

  energy without entropy =    -1105.34563079  energy(sigma->0) =    -1105.40010853
  exchange ACFDT corr.  =         0.00000000  see jH, gK, PRB 81, 115126


--------------------------------------------------------------------------------------------------------




----------------------------------------- Iteration    1(   9)  ---------------------------------------


    POTLOK:  cpu time    0.0360: real time    0.0389
    SETDIJ:  cpu time   13.1488: real time   13.1732
    TRIAL :  cpu time    1.0601: real time    1.0633
    CORREC:  cpu time   13.6929: real time   13.7200
    CHARGE:  cpu time    0.0800: real time    0.0800
    --------------------------------------------
      LOOP:  cpu time   28.0218: real time   28.0773

 eigenvalue-minimisations  :     0
 total energy-change (2. order) :-0.1897768E+00  (-0.5318436E-01)
 number of electron     508.9999597 magnetization 
 augmentation part        6.1045741 magnetization 

 Free energy of the ion-electron system (eV)
  ---------------------------------------------------
  alpha Z        PSCENC =       370.25495035
  Ewald energy   TEWEN  =    -21956.58660455
  -Hartree energ DENC   =     -1769.68031964
  -exchange      EXHF   =         0.00000000
  -V(xc)+E(xc)   XCENC  =      1018.73682827
  PAW double counting   =     50856.39218546   -50174.10963646
  entropy T*S    EENTRO =        -0.08231522
  eigenvalues    EBANDS =      1906.43131119
  atomic energy  EATOM  =     18643.02587779
  ---------------------------------------------------
  free energy    TOTEN  =     -1105.61712419 eV

  energy without entropy =    -1105.53480896  energy(sigma->0) =    -1105.58968578
  exchange ACFDT corr.  =         0.00000000  see jH, gK, PRB 81, 115126


--------------------------------------------------------------------------------------------------------




----------------------------------------- Iteration    1(  10)  ---------------------------------------


    POTLOK:  cpu time    0.0400: real time    0.0390
    SETDIJ:  cpu time   13.4248: real time   13.4508
    TRIAL :  cpu time    1.0601: real time    1.0633
    CORREC:  cpu time   13.5889: real time   13.6140
    CHARGE:  cpu time    0.0800: real time    0.0800
    --------------------------------------------
      LOOP:  cpu time   28.1938: real time   28.2488

 eigenvalue-minimisations  :     0
 total energy-change (2. order) :-0.5305302E-01  (-0.5117541E-01)
 number of electron     508.9999598 magnetization 
 augmentation part        6.0542161 magnetization 

 Free energy of the ion-electron system (eV)
  ---------------------------------------------------
  alpha Z        PSCENC =       370.25495035
  Ewald energy   TEWEN  =    -21956.58660455
  -Hartree energ DENC   =     -1770.10198734
  -exchange      EXHF   =         0.00000000
  -V(xc)+E(xc)   XCENC  =      1018.78203640
  PAW double counting   =     50894.38177217   -50212.11148820
  entropy T*S    EENTRO =        -0.08251795
  eigenvalues    EBANDS =      1906.76758138
  atomic energy  EATOM  =     18643.02587779
  ---------------------------------------------------
  free energy    TOTEN  =     -1105.67017721 eV

  energy without entropy =    -1105.58765926  energy(sigma->0) =    -1105.64267123
  exchange ACFDT corr.  =         0.00000000  see jH, gK, PRB 81, 115126


--------------------------------------------------------------------------------------------------------




----------------------------------------- Iteration    1(  11)  ---------------------------------------


    POTLOK:  cpu time    0.0400: real time    0.0389
    SETDIJ:  cpu time   13.4368: real time   13.4635
    TRIAL :  cpu time    1.0601: real time    1.0628
    CORREC:  cpu time   13.6689: real time   13.6962
    CHARGE:  cpu time    0.0800: real time    0.0798
    --------------------------------------------
      LOOP:  cpu time   28.2858: real time   28.3437

 eigenvalue-minimisations  :     0
 total energy-change (2. order) :-0.5117794E-01  (-0.1385054E-01)
 number of electron     508.9999598 magnetization 
 augmentation part        6.0636531 magnetization 

 Free energy of the ion-electron system (eV)
  ---------------------------------------------------
  alpha Z        PSCENC =       370.25495035
  Ewald energy   TEWEN  =    -21956.58660455
  -Hartree energ DENC   =     -1767.95805933
  -exchange      EXHF   =         0.00000000
  -V(xc)+E(xc)   XCENC  =      1018.83991925
  PAW double counting   =     50997.38175636   -50315.15965899
  entropy T*S    EENTRO =        -0.08251578
  eigenvalues    EBANDS =      1904.56298192
  atomic energy  EATOM  =     18643.02587779
  ---------------------------------------------------
  free energy    TOTEN  =     -1105.72135515 eV

  energy without entropy =    -1105.63883937  energy(sigma->0) =    -1105.69384989
  exchange ACFDT corr.  =         0.00000000  see jH, gK, PRB 81, 115126


--------------------------------------------------------------------------------------------------------




----------------------------------------- Iteration    1(  12)  ---------------------------------------


    POTLOK:  cpu time    0.0400: real time    0.0390
    SETDIJ:  cpu time   13.4288: real time   13.4544
    TRIAL :  cpu time    1.0601: real time    1.0629
    CORREC:  cpu time   13.6809: real time   13.7056
    CHARGE:  cpu time    0.0800: real time    0.0799
    --------------------------------------------
      LOOP:  cpu time   28.2898: real time   28.3437

 eigenvalue-minimisations  :     0
 total energy-change (2. order) :-0.1387710E-01  (-0.2233337E-02)
 number of electron     508.9999598 magnetization 
 augmentation part        6.0765106 magnetization 

 Free energy of the ion-electron system (eV)
  ---------------------------------------------------
  alpha Z        PSCENC =       370.25495035
  Ewald energy   TEWEN  =    -21956.58660455
  -Hartree energ DENC   =     -1767.32784443
  -exchange      EXHF   =         0.00000000
  -V(xc)+E(xc)   XCENC  =      1018.79441074
  PAW double counting   =     51053.53763108   -50371.31035282
  entropy T*S    EENTRO =        -0.08249994
  eigenvalues    EBANDS =      1903.95921536
  atomic energy  EATOM  =     18643.02587779
  ---------------------------------------------------
  free energy    TOTEN  =     -1105.73523225 eV

  energy without entropy =    -1105.65273230  energy(sigma->0) =    -1105.70773227
  exchange ACFDT corr.  =         0.00000000  see jH, gK, PRB 81, 115126


--------------------------------------------------------------------------------------------------------




----------------------------------------- Iteration    1(  13)  ---------------------------------------


    POTLOK:  cpu time    0.0400: real time    0.0390
    SETDIJ:  cpu time   13.4128: real time   13.4393
    TRIAL :  cpu time    1.0601: real time    1.0627
    CORREC:  cpu time   13.6969: real time   13.7241
    CHARGE:  cpu time    0.0800: real time    0.0799
    --------------------------------------------
      LOOP:  cpu time   28.2898: real time   28.3467

 eigenvalue-minimisations  :     0
 total energy-change (2. order) :-0.2230986E-02  (-0.1328760E-02)
 number of electron     508.9999598 magnetization 
 augmentation part        6.0871665 magnetization 

 Free energy of the ion-electron system (eV)
  ---------------------------------------------------
  alpha Z        PSCENC =       370.25495035
  Ewald energy   TEWEN  =    -21956.58660455
  -Hartree energ DENC   =     -1767.35406431
  -exchange      EXHF   =         0.00000000
  -V(xc)+E(xc)   XCENC  =      1018.76276241
  PAW double counting   =     51060.69793046   -50378.46828872
  entropy T*S    EENTRO =        -0.08252274
  eigenvalues    EBANDS =      1904.01247328
  atomic energy  EATOM  =     18643.02587779
  ---------------------------------------------------
  free energy    TOTEN  =     -1105.73746323 eV

  energy without entropy =    -1105.65494049  energy(sigma->0) =    -1105.70995565
  exchange ACFDT corr.  =         0.00000000  see jH, gK, PRB 81, 115126


--------------------------------------------------------------------------------------------------------




----------------------------------------- Iteration    1(  14)  ---------------------------------------


    POTLOK:  cpu time    0.0400: real time    0.0391
    SETDIJ:  cpu time   13.4328: real time   13.4582
    TRIAL :  cpu time    1.0601: real time    1.0629
    CORREC:  cpu time   13.6329: real time   13.6588
    CHARGE:  cpu time    0.0800: real time    0.0802
    --------------------------------------------
      LOOP:  cpu time   28.2458: real time   28.3017

 eigenvalue-minimisations  :     0
 total energy-change (2. order) :-0.1323838E-02  (-0.6705822E-03)
 number of electron     508.9999598 magnetization 
 augmentation part        6.0870056 magnetization 

 Free energy of the ion-electron system (eV)
  ---------------------------------------------------
  alpha Z        PSCENC =       370.25495035
  Ewald energy   TEWEN  =    -21956.58660455
  -Hartree energ DENC   =     -1767.36388329
  -exchange      EXHF   =         0.00000000
  -V(xc)+E(xc)   XCENC  =      1018.73587068
  PAW double counting   =     51062.78006943   -50380.54832556
  entropy T*S    EENTRO =        -0.08252232
  eigenvalues    EBANDS =      1904.04578082
  atomic energy  EATOM  =     18643.02587779
  ---------------------------------------------------
  free energy    TOTEN  =     -1105.73878707 eV

  energy without entropy =    -1105.65626475  energy(sigma->0) =    -1105.71127963
  exchange ACFDT corr.  =         0.00000000  see jH, gK, PRB 81, 115126


--------------------------------------------------------------------------------------------------------




----------------------------------------- Iteration    1(  15)  ---------------------------------------


    POTLOK:  cpu time    0.0400: real time    0.0389
    SETDIJ:  cpu time   13.4368: real time   13.4628
    TRIAL :  cpu time    1.0601: real time    1.0628
    CORREC:  cpu time   13.6849: real time   13.7121
    CHARGE:  cpu time    0.0800: real time    0.0801
    --------------------------------------------
      LOOP:  cpu time   28.3018: real time   28.3588

 eigenvalue-minimisations  :     0
 total energy-change (2. order) :-0.6715981E-03  (-0.1928266E-03)
 number of electron     508.9999598 magnetization 
 augmentation part        6.0840683 magnetization 

 Free energy of the ion-electron system (eV)
  ---------------------------------------------------
  alpha Z        PSCENC =       370.25495035
  Ewald energy   TEWEN  =    -21956.58660455
  -Hartree energ DENC   =     -1767.17035319
  -exchange      EXHF   =         0.00000000
  -V(xc)+E(xc)   XCENC  =      1018.72777321
  PAW double counting   =     51058.69107685   -50376.45674980
  entropy T*S    EENTRO =        -0.08252131
  eigenvalues    EBANDS =      1903.85709298
  atomic energy  EATOM  =     18643.02587779
  ---------------------------------------------------
  free energy    TOTEN  =     -1105.73945867 eV

  energy without entropy =    -1105.65693736  energy(sigma->0) =    -1105.71195157
  exchange ACFDT corr.  =         0.00000000  see jH, gK, PRB 81, 115126


--------------------------------------------------------------------------------------------------------




----------------------------------------- Iteration    1(  16)  ---------------------------------------


    POTLOK:  cpu time    0.0400: real time    0.0389
    SETDIJ:  cpu time   13.4288: real time   13.4522
    TRIAL :  cpu time    1.0561: real time    1.0627
    CORREC:  cpu time   13.6369: real time   13.6629
    CHARGE:  cpu time    0.0800: real time    0.0801
    --------------------------------------------
      LOOP:  cpu time   28.2418: real time   28.2985

 eigenvalue-minimisations  :     0
 total energy-change (2. order) :-0.1915534E-03  (-0.1178068E-03)
 number of electron     508.9999598 magnetization 
 augmentation part        6.0821904 magnetization 

 Free energy of the ion-electron system (eV)
  ---------------------------------------------------
  alpha Z        PSCENC =       370.25495035
  Ewald energy   TEWEN  =    -21956.58660455
  -Hartree energ DENC   =     -1767.19169824
  -exchange      EXHF   =         0.00000000
  -V(xc)+E(xc)   XCENC  =      1018.73415084
  PAW double counting   =     51055.39771529   -50373.16294427
  entropy T*S    EENTRO =        -0.08252270
  eigenvalues    EBANDS =      1903.87142386
  atomic energy  EATOM  =     18643.02587779
  ---------------------------------------------------
  free energy    TOTEN  =     -1105.73965022 eV

  energy without entropy =    -1105.65712753  energy(sigma->0) =    -1105.71214266
  exchange ACFDT corr.  =         0.00000000  see jH, gK, PRB 81, 115126


--------------------------------------------------------------------------------------------------------




----------------------------------------- Iteration    1(  17)  ---------------------------------------


    POTLOK:  cpu time    0.0400: real time    0.0389
    SETDIJ:  cpu time   13.4008: real time   13.4256
    TRIAL :  cpu time    1.0601: real time    1.0623
    CORREC:  cpu time   13.6289: real time   13.6553
    CHARGE:  cpu time    0.0800: real time    0.0800
    --------------------------------------------
      LOOP:  cpu time   28.2098: real time   28.2647

 eigenvalue-minimisations  :     0
 total energy-change (2. order) :-0.1186633E-03  (-0.7420475E-04)
 number of electron     508.9999598 magnetization 
 augmentation part        6.0827508 magnetization 

 Free energy of the ion-electron system (eV)
  ---------------------------------------------------
  alpha Z        PSCENC =       370.25495035
  Ewald energy   TEWEN  =    -21956.58660455
  -Hartree energ DENC   =     -1767.23984457
  -exchange      EXHF   =         0.00000000
  -V(xc)+E(xc)   XCENC  =      1018.74007603
  PAW double counting   =     51052.78344568   -50370.54863013
  entropy T*S    EENTRO =        -0.08252286
  eigenvalues    EBANDS =      1903.91348320
  atomic energy  EATOM  =     18643.02587779
  ---------------------------------------------------
  free energy    TOTEN  =     -1105.73976889 eV

  energy without entropy =    -1105.65724603  energy(sigma->0) =    -1105.71226127
  exchange ACFDT corr.  =         0.00000000  see jH, gK, PRB 81, 115126


--------------------------------------------------------------------------------------------------------




----------------------------------------- Iteration    1(  18)  ---------------------------------------


    POTLOK:  cpu time    0.0400: real time    0.0389
    SETDIJ:  cpu time   13.3968: real time   13.4240
    TRIAL :  cpu time    1.0601: real time    1.0623
    CORREC:  cpu time   13.6809: real time   13.7124
    CHARGE:  cpu time    0.0800: real time    0.0802
    --------------------------------------------
      LOOP:  cpu time   28.2578: real time   28.3198

 eigenvalue-minimisations  :     0
 total energy-change (2. order) :-0.7420771E-04  (-0.2934381E-04)
 number of electron     508.9999598 magnetization 
 augmentation part        6.0833514 magnetization 

 Free energy of the ion-electron system (eV)
  ---------------------------------------------------
  alpha Z        PSCENC =       370.25495035
  Ewald energy   TEWEN  =    -21956.58660455
  -Hartree energ DENC   =     -1767.30587034
  -exchange      EXHF   =         0.00000000
  -V(xc)+E(xc)   XCENC  =      1018.74331051
  PAW double counting   =     51050.87788076   -50368.64337627
  entropy T*S    EENTRO =        -0.08252284
  eigenvalues    EBANDS =      1903.97651150
  atomic energy  EATOM  =     18643.02587779
  ---------------------------------------------------
  free energy    TOTEN  =     -1105.73984309 eV

  energy without entropy =    -1105.65732025  energy(sigma->0) =    -1105.71233548
  exchange ACFDT corr.  =         0.00000000  see jH, gK, PRB 81, 115126


--------------------------------------------------------------------------------------------------------


  average scaling for gradient   0.9712


 average (electrostatic) potential at core
  the test charge radii are     0.6557  1.1631
  (the norm of the test charge is              1.0000)
       1-107.7785       2-107.8286       3-107.8218       4-107.7845       5-107.8218
       6-107.7845       7-107.7778       8-107.6519       9-107.8217      10-107.7844
      11-107.7776      12-107.6515      13-107.7776      14-107.6516      15-107.7164
      16-107.8006      17-107.7001      18-107.5779      19-107.6634      20-107.7379
      21-107.5056      22-107.6823      23-107.7128      24-107.7957      25-107.5049
      26-107.6819      27-107.7125      28-107.7955      29-107.7978      30-107.9098
      31-107.8313      32-107.7493      33-107.7002      34-107.5780      35-107.5056
      36-107.6823      37-107.6634      38-107.7380      39-107.7128      40-107.7957
      41-107.5051      42-107.6820      43-107.7978      44-107.9099      45-107.7126
      46-107.7956      47-107.8313      48-107.7493      49-107.5956      50-107.7627
      51-107.7380      52-107.6553      53-107.7380      54-107.6553      55-107.6984
      56-107.6109      57-108.0467      58-107.3229      59-107.6547      60-107.2096
      61-107.6546      62-107.2094      63-107.4054      64-107.5898      65-107.7000
      66-107.5776      67-107.5048      68-107.6819      69-107.5049      70-107.6819
      71-107.7977      72-107.9098      73-107.6633      74-107.7379      75-107.7126
      76-107.7957      77-107.7126      78-107.7957      79-107.8314      80-107.7497
      81-107.5949      82-107.7623      83-107.7378      84-107.6552      85-108.0466
      86-107.3230      87-107.6546      88-107.2095      89-107.7379      90-107.6553
      91-107.6985      92-107.6110      93-107.6550      94-107.2105      95-107.4057
      96-107.5900      97-107.5951      98-107.7624      99-108.0466     100-107.3230
     101-107.7379     102-107.6553     103-107.6547     104-107.2094     105-107.7379
     106-107.6554     107-107.6551     108-107.2105     109-107.6985     110-107.6110
     111-107.4057     112-107.5900     113-105.6945     114-107.2852     115-105.6941
     116-107.2851     117-107.4015     118-107.6513     119-105.6973     120-107.2860
     121-107.4019     122-107.6515     123-107.4018     124-107.6514     125-107.6957
     126-107.7054     127 -23.1138
 
 
 
 E-fermi :  15.1393     XC(G=0): -13.3513     alpha+bet :-20.6117


 k-point     1 :       0.0000    0.0000    0.0000
  band No.  band energies     occupation 
      1      -8.8933      2.00000
      2      -7.3588      2.00000
      3      -7.2248      2.00000
      4      -7.2186      2.00000
      5      -7.2186      2.00000
      6      -7.1607      2.00000
      7      -7.1479      2.00000
      8      -7.1479      2.00000
      9      -7.0231      2.00000
     10      -6.6597      2.00000
     11      -6.6191      2.00000
     12      -6.6191      2.00000
     13      -6.5071      2.00000
     14      -6.5072      2.00000
     15      -6.0936      2.00000
     16      -4.4767      2.00000
     17      -4.4768      2.00000
     18      -4.4767      2.00000
     19      -4.4475      2.00000
     20      -4.4475      2.00000
     21      -4.4073      2.00000
     22      -4.3971      2.00000
     23      -4.3971      2.00000
     24      -4.3751      2.00000
     25      -4.3213      2.00000
     26      -4.3213      2.00000
     27      -4.0907      2.00000
     28      -3.1669      2.00000
     29      -3.1669      2.00000
     30      -3.1606      2.00000
     31      -3.1248      2.00000
     32      -2.9798      2.00000
     33      -2.9798      2.00000
     34      -2.9695      2.00000
     35      -2.9333      2.00000
     36      -2.9333      2.00000
     37      -2.8992      2.00000
     38      -2.8894      2.00000
     39      -2.8894      2.00000
     40      -2.8799      2.00000
     41      -2.8798      2.00000
     42      -2.8799      2.00000
     43      -2.8712      2.00000
     44      -2.8628      2.00000
     45      -2.8628      2.00000
     46      -2.7876      2.00000
     47      -2.7762      2.00000
     48      -2.7763      2.00000
     49      -2.7664      2.00000
     50      -2.7665      2.00000
     51      -2.7356      2.00000
     52      -2.6242      2.00000
     53      -2.3828      2.00000
     54      -2.3832      2.00000
     55      -1.1378      2.00000
     56      -0.7477      2.00000
     57      -0.7477      2.00000
     58      -0.7352      2.00000
     59      -0.6901      2.00000
     60      -0.1454      2.00000
     61      -0.1454      2.00000
     62      -0.1171      2.00000
     63      -0.1171      2.00000
     64      -0.0627      2.00000
     65       0.0362      2.00000
     66       0.5923      2.00000
     67       0.5923      2.00000
     68       0.6068      2.00000
     69       0.6225      2.00000
     70       0.6225      2.00000
     71       0.6441      2.00000
     72       0.6440      2.00000
     73       0.6838      2.00000
     74       0.7979      2.00000
     75       0.7978      2.00000
     76       0.8307      2.00000
     77       1.2249      2.00000
     78       1.7430      2.00000
     79       1.7478      2.00000
     80       1.7663      2.00000
     81       1.7663      2.00000
     82       1.7719      2.00000
     83       1.7720      2.00000
     84       1.7930      2.00000
     85       1.8029      2.00000
     86       1.8028      2.00000
     87       1.8065      2.00000
     88       1.8065      2.00000
     89       1.8378      2.00000
     90       1.8377      2.00000
     91       1.8441      2.00000
     92       1.8709      2.00000
     93       1.8708      2.00000
     94       1.9176      2.00000
     95       1.9214      2.00000
     96       1.9213      2.00000
     97       1.9544      2.00000
     98       2.2698      2.00000
     99       2.2696      2.00000
    100       2.3817      2.00000
    101       3.2787      2.00000
    102       3.8831      2.00000
    103       3.8831      2.00000
    104       3.9061      2.00000
    105       3.9217      2.00000
    106       3.9235      2.00000
    107       3.9235      2.00000
    108       3.9444      2.00000
    109       3.9444      2.00000
    110       4.0530      2.00000
    111       4.0529      2.00000
[...]
   -.221E+02 -.121E+02 0.250E+02   0.234E+02 0.103E+02 -.248E+02   -.130E+01 0.184E+01 -.215E+00
   -.252E+02 0.120E+02 0.221E+02   0.250E+02 -.102E+02 -.234E+02   0.208E+00 -.183E+01 0.132E+01
   -.796E+01 -.796E+01 0.261E+02   0.808E+01 0.808E+01 -.265E+02   -.127E+00 -.127E+00 0.464E+00
   -.232E+01 -.232E+01 0.115E+02   0.225E+01 0.225E+01 -.122E+02   0.673E-01 0.673E-01 0.715E+00
   0.308E+00 0.310E+00 -.492E+01   -.255E+00 -.255E+00 0.376E+01   -.598E-01 -.598E-01 0.119E+01
   -.438E+00 -.440E+00 0.483E+01   0.398E+00 0.398E+00 -.368E+01   0.344E-01 0.344E-01 -.118E+01
   -.604E+01 0.340E+01 -.521E+01   0.672E+01 -.398E+01 0.356E+01   -.694E+00 0.598E+00 0.170E+01
   -.478E+01 0.182E+01 -.256E+01   0.469E+01 -.214E+01 0.268E+01   0.956E-01 0.334E+00 -.122E+00
   0.340E+01 -.604E+01 -.522E+01   -.398E+01 0.672E+01 0.356E+01   0.598E+00 -.694E+00 0.170E+01
   0.183E+01 -.478E+01 -.256E+01   -.214E+01 0.469E+01 0.268E+01   0.334E+00 0.956E-01 -.122E+00
   -.475E+01 -.475E+01 -.858E+01   0.489E+01 0.489E+01 0.867E+01   -.141E+00 -.141E+00 -.922E-01
   -.372E+01 -.373E+01 -.212E+02   0.391E+01 0.391E+01 0.221E+02   -.187E+00 -.187E+00 -.879E+00
   -.415E+00 -.416E+00 -.135E+01   0.303E+00 0.303E+00 0.119E+01   0.107E+00 0.107E+00 0.166E+00
   0.271E+00 0.270E+00 -.152E+01   -.345E+00 -.345E+00 0.166E+01   0.741E-01 0.741E-01 -.159E+00
   -.215E+01 0.488E+01 -.196E+01   0.225E+01 -.504E+01 0.203E+01   -.105E+00 0.151E+00 -.748E-01
   0.219E+01 0.198E+01 -.468E+01   -.229E+01 -.206E+01 0.484E+01   0.101E+00 0.825E-01 -.176E+00
   0.488E+01 -.215E+01 -.196E+01   -.504E+01 0.225E+01 0.203E+01   0.151E+00 -.105E+00 -.748E-01
   0.198E+01 0.219E+01 -.468E+01   -.206E+01 -.229E+01 0.484E+01   0.825E-01 0.101E+00 -.176E+00
   0.239E+01 0.239E+01 -.115E+02   -.233E+01 -.233E+01 0.122E+02   -.573E-01 -.573E-01 -.704E+00
   0.793E+01 0.792E+01 -.262E+02   -.805E+01 -.805E+01 0.266E+02   0.126E+00 0.126E+00 -.458E+00
   -.525E+01 0.307E+01 0.307E+01   0.625E+01 -.343E+01 -.343E+01   -.101E+01 0.358E+00 0.358E+00
   0.518E+01 -.293E+01 -.293E+01   -.620E+01 0.329E+01 0.329E+01   0.104E+01 -.356E+00 -.356E+00
   0.474E+01 -.185E+01 0.274E+01   -.466E+01 0.216E+01 -.285E+01   -.791E-01 -.321E+00 0.110E+00
   0.599E+01 -.340E+01 0.521E+01   -.666E+01 0.399E+01 -.357E+01   0.677E+00 -.597E+00 -.169E+01
   0.762E+01 -.215E+02 -.215E+02   -.679E+01 0.225E+02 0.225E+02   -.850E+00 -.106E+01 -.106E+01
   0.493E+02 -.423E+02 -.423E+02   -.532E+02 0.474E+02 0.474E+02   0.400E+01 -.517E+01 -.517E+01
   0.250E+02 -.221E+02 -.121E+02   -.248E+02 0.234E+02 0.103E+02   -.215E+00 -.130E+01 0.184E+01
   0.221E+02 -.252E+02 0.120E+02   -.234E+02 0.250E+02 -.102E+02   0.132E+01 0.208E+00 -.183E+01
   0.474E+01 0.274E+01 -.185E+01   -.466E+01 -.285E+01 0.216E+01   -.791E-01 0.110E+00 -.321E+00
   0.599E+01 0.521E+01 -.340E+01   -.666E+01 -.357E+01 0.399E+01   0.677E+00 -.169E+01 -.597E+00
   0.571E+01 -.314E+01 -.314E+01   -.593E+01 0.300E+01 0.300E+01   0.219E+00 0.149E+00 0.149E+00
   0.549E+01 -.228E+01 -.228E+01   -.577E+01 0.257E+01 0.257E+01   0.297E+00 -.300E+00 -.300E+00
   0.250E+02 -.121E+02 -.221E+02   -.248E+02 0.103E+02 0.234E+02   -.215E+00 0.184E+01 -.130E+01
   0.221E+02 0.120E+02 -.252E+02   -.234E+02 -.102E+02 0.250E+02   0.132E+01 -.183E+01 0.208E+00
   0.261E+02 -.796E+01 -.796E+01   -.265E+02 0.808E+01 0.808E+01   0.464E+00 -.127E+00 -.127E+00
   0.115E+02 -.232E+01 -.232E+01   -.122E+02 0.225E+01 0.225E+01   0.715E+00 0.673E-01 0.673E-01
   0.307E+01 -.525E+01 0.307E+01   -.343E+01 0.625E+01 -.343E+01   0.358E+00 -.101E+01 0.358E+00
   -.293E+01 0.519E+01 -.293E+01   0.329E+01 -.620E+01 0.329E+01   -.356E+00 0.104E+01 -.356E+00
   -.215E+02 0.761E+01 -.215E+02   0.225E+02 -.679E+01 0.225E+02   -.106E+01 -.850E+00 -.106E+01
   -.423E+02 0.493E+02 -.423E+02   0.474E+02 -.532E+02 0.474E+02   -.517E+01 0.400E+01 -.517E+01
   -.185E+01 0.475E+01 0.274E+01   0.216E+01 -.466E+01 -.285E+01   -.321E+00 -.791E-01 0.110E+00
   -.341E+01 0.599E+01 0.522E+01   0.399E+01 -.666E+01 -.357E+01   -.597E+00 0.677E+00 -.169E+01
   -.221E+02 0.251E+02 -.121E+02   0.234E+02 -.248E+02 0.103E+02   -.130E+01 -.215E+00 0.184E+01
   -.252E+02 0.221E+02 0.120E+02   0.250E+02 -.234E+02 -.102E+02   0.208E+00 0.132E+01 -.183E+01
   0.274E+01 0.475E+01 -.185E+01   -.285E+01 -.466E+01 0.216E+01   0.110E+00 -.791E-01 -.321E+00
   0.521E+01 0.599E+01 -.341E+01   -.357E+01 -.666E+01 0.399E+01   -.169E+01 0.677E+00 -.597E+00
   -.121E+02 0.250E+02 -.221E+02   0.103E+02 -.248E+02 0.234E+02   0.184E+01 -.215E+00 -.130E+01
   0.120E+02 0.221E+02 -.252E+02   -.102E+02 -.234E+02 0.250E+02   -.183E+01 0.132E+01 0.208E+00
   -.314E+01 0.571E+01 -.314E+01   0.300E+01 -.593E+01 0.300E+01   0.149E+00 0.219E+00 0.149E+00
   -.228E+01 0.549E+01 -.227E+01   0.257E+01 -.577E+01 0.257E+01   -.300E+00 0.297E+00 -.300E+00
   -.796E+01 0.261E+02 -.796E+01   0.808E+01 -.265E+02 0.808E+01   -.127E+00 0.464E+00 -.127E+00
   -.232E+01 0.115E+02 -.232E+01   0.225E+01 -.122E+02 0.225E+01   0.673E-01 0.715E+00 0.673E-01
   0.423E+02 -.494E+02 0.423E+02   -.474E+02 0.534E+02 -.474E+02   0.522E+01 -.404E+01 0.522E+01
   0.215E+02 -.747E+01 0.215E+02   -.226E+02 0.665E+01 -.226E+02   0.107E+01 0.844E+00 0.107E+01
   -.494E+02 0.423E+02 0.423E+02   0.534E+02 -.474E+02 -.474E+02   -.404E+01 0.522E+01 0.522E+01
   -.748E+01 0.215E+02 0.215E+02   0.665E+01 -.226E+02 -.226E+02   0.844E+00 0.107E+01 0.107E+01
   0.385E+01 0.386E+01 0.213E+02   -.404E+01 -.404E+01 -.221E+02   0.180E+00 0.180E+00 0.867E+00
   0.474E+01 0.474E+01 0.853E+01   -.490E+01 -.490E+01 -.863E+01   0.156E+00 0.156E+00 0.102E+00
   0.423E+02 0.423E+02 -.494E+02   -.474E+02 -.474E+02 0.534E+02   0.522E+01 0.522E+01 -.404E+01
   0.215E+02 0.215E+02 -.747E+01   -.226E+02 -.226E+02 0.665E+01   0.107E+01 0.107E+01 0.844E+00
   0.213E+02 0.386E+01 0.385E+01   -.221E+02 -.404E+01 -.404E+01   0.867E+00 0.180E+00 0.180E+00
   0.853E+01 0.474E+01 0.474E+01   -.863E+01 -.490E+01 -.490E+01   0.102E+00 0.156E+00 0.156E+00
   0.385E+01 0.213E+02 0.386E+01   -.404E+01 -.221E+02 -.404E+01   0.180E+00 0.867E+00 0.180E+00
   0.474E+01 0.853E+01 0.474E+01   -.490E+01 -.863E+01 -.490E+01   0.156E+00 0.102E+00 0.156E+00
   0.368E+01 0.368E+01 0.368E+01   -.386E+01 -.386E+01 -.386E+01   0.199E+00 0.199E+00 0.199E+00
   0.360E+01 0.361E+01 0.361E+01   -.330E+01 -.330E+01 -.330E+01   -.295E+00 -.295E+00 -.295E+00
   -.210E+00 -.210E+00 -.210E+00   0.202E+00 0.202E+00 0.202E+00   -.207E-01 -.207E-01 -.207E-01
 -----------------------------------------------------------------------------------------------
   -.593E-01 -.598E-01 -.596E-01   -.484E-13 0.281E-12 -.119E-13   0.456E-03 0.456E-03 0.456E-03
 
 
 POSITION                                       TOTAL-FORCE (eV/Angst)
 -----------------------------------------------------------------------------------
     -0.00220     -0.00220     -0.00220        -0.017833     -0.017833     -0.017833
      0.88928      0.88928      0.88928        -0.016116     -0.016116     -0.016116
      1.78057     -0.00307      1.78057        -0.002802     -0.008998     -0.002802
      2.67208      0.88872      2.67208        -0.003476      0.010054     -0.003476
     -0.00307      1.78057      1.78057        -0.008998     -0.002802     -0.002802
      0.88872      2.67208      2.67208         0.010054     -0.003476     -0.003476
      1.78203      1.78203      3.56240         0.009463      0.009463      0.007687
      2.67802      2.67802      4.45112        -0.001033     -0.001033      0.016160
      1.78057      1.78057     -0.00307        -0.002802     -0.002802     -0.008998
      2.67208      2.67208      0.88872        -0.003476     -0.003476      0.010054
      3.56240      1.78203      1.78203         0.007687      0.009463      0.009463
      4.45112      2.67802      2.67802         0.016160     -0.001033     -0.001033
      1.78203      3.56240      1.78203         0.009463      0.007687      0.009463
      2.67802      4.45112      2.67802        -0.001033      0.016160     -0.001033
      3.56780      3.56780      3.56780        -0.000109     -0.000109     -0.000109
      4.46487      4.46487      4.46487         0.017523      0.017523      0.017523
      3.56327     -0.00649      3.56327        -0.005068      0.000127     -0.005068
      4.45656      0.89104      4.45656        -0.005583      0.003866     -0.005583
      5.34789     -0.00404      5.34789        -0.007427     -0.002317     -0.007427
      6.23960      0.88882      6.23960        -0.001212     -0.012878     -0.001212
      3.58533      1.78394      5.33236         0.001269     -0.003277      0.000851
      4.46379      2.67909      6.23790         0.008574     -0.001206      0.004982
      5.34855      1.78093      7.13081        -0.005254     -0.004026     -0.000983
      6.23842      2.67104      8.02270         0.004471     -0.007988     -0.001536
      5.33236      1.78394      3.58533         0.000851     -0.003277      0.001269
      6.23790      2.67909      4.46379         0.004982     -0.001206      0.008574
      7.13081      1.78093      5.34855        -0.000983     -0.004026     -0.005254
      8.02270      2.67104      6.23842        -0.001536     -0.007988      0.004471
      5.35955      3.58098      5.35955         0.002964      0.001658      0.002964
      6.25681      4.47791      6.25681         0.000886     -0.001401      0.000886
      7.13527      3.56700      7.13527         0.010277      0.003005      0.010277
      8.02503      4.45145      8.02503        -0.002352     -0.000075     -0.002352
     -0.00649      3.56327      3.56327         0.000127     -0.005068     -0.005068
      0.89104      4.45656      4.45656         0.003866     -0.005583     -0.005583
      1.78394      3.58533      5.33236        -0.003277      0.001269      0.000851
      2.67909      4.46379      6.23790        -0.001206      0.008574      0.004982
     -0.00404      5.34789      5.34789        -0.002317     -0.007427     -0.007427
      0.88882      6.23960      6.23960        -0.012878     -0.001212     -0.001212
      1.78093      5.34855      7.13081        -0.004026     -0.005254     -0.000983
      2.67104      6.23842      8.02270        -0.007988      0.004471     -0.001536
      1.78394      5.33236      3.58533        -0.003277      0.000851      0.001269
      2.67909      6.23790      4.46379        -0.001206      0.004982      0.008574
      3.58098      5.35955      5.35955         0.001658      0.002964      0.002964
      4.47791      6.25681      6.25681        -0.001401      0.000886      0.000886
      1.78093      7.13081      5.34855        -0.004026     -0.000983     -0.005254
      2.67104      8.02270      6.23842        -0.007988     -0.001536      0.004471
      3.56700      7.13527      7.13527         0.003005      0.010277      0.010277
      4.45145      8.02503      8.02503        -0.000075     -0.002352     -0.002352
      3.56531      3.56531      7.12815        -0.004723     -0.004723      0.007658
      4.45347      4.45347      8.02452         0.004904      0.004904      0.000734
      5.33999      3.55501      8.91498        -0.004401     -0.001032      0.007533
      6.23479      4.43342      9.82110         0.007677      0.002693     -0.010432
      3.55501      5.33999      8.91498        -0.001032     -0.004401      0.007533
      4.43342      6.23479      9.82110         0.002693      0.007677     -0.010432
      5.34041      5.34041     10.70174         0.003878      0.003878     -0.002080
      6.23665      6.23665     11.59099         0.004203      0.004203      0.004715
      5.37232      5.37232      7.15892         0.005974      0.005974     -0.003221
      6.20105      6.20105      8.14645         0.008116      0.008116     -0.013995
      7.11832      5.31731      8.95449         0.003627      0.004400      0.004156
      8.03444      6.19870      9.83544         0.003882      0.006172     -0.000125
      5.31731      7.11832      8.95449         0.004400      0.003627      0.004156
      6.19870      8.03444      9.83544         0.006172      0.003882     -0.000125
      7.12802      7.12802     10.70192        -0.003265     -0.003265     -0.005049
      8.01767      8.01767     11.58640        -0.001158     -0.001158      0.005887
      3.56327      3.56327     -0.00649        -0.005068     -0.005068      0.000127
      4.45656      4.45656      0.89104        -0.005583     -0.005583      0.003866
      5.33236      3.58533      1.78394         0.000851      0.001269     -0.003277
      6.23790      4.46379      2.67909         0.004982      0.008574     -0.001206
      3.58533      5.33236      1.78394         0.001269      0.000851     -0.003277
      4.46379      6.23790      2.67909         0.008574      0.004982     -0.001206
      5.35955      5.35955      3.58098         0.002964      0.002964      0.001658
      6.25681      6.25681      4.47791         0.000886      0.000886     -0.001401
      5.34789      5.34789     -0.00404        -0.007427     -0.007427     -0.002317
      6.23960      6.23960      0.88882        -0.001212     -0.001212     -0.012878
      7.13081      5.34855      1.78093        -0.000983     -0.005254     -0.004026
      8.02270      6.23842      2.67104        -0.001536      0.004471     -0.007988
      5.34855      7.13081      1.78093        -0.005254     -0.000983     -0.004026
      6.23842      8.02270      2.67104         0.004471     -0.001536     -0.007988
      7.13527      7.13527      3.56700         0.010277      0.010277      0.003005
      8.02503      8.02503      4.45145        -0.002352     -0.002352     -0.000075
      7.12815      3.56531      3.56531         0.007658     -0.004723     -0.004723
      8.02452      4.45347      4.45347         0.000734      0.004904      0.004904
      8.91498      3.55501      5.33999         0.007533     -0.001032     -0.004401
      9.82110      4.43342      6.23479        -0.010432      0.002693      0.007677
      7.15892      5.37232      5.37232        -0.003221      0.005974      0.005974
      8.14645      6.20105      6.20105        -0.013995      0.008116      0.008116
      8.95449      5.31731      7.11832         0.004156      0.004400      0.003627
      9.83544      6.19870      8.03444        -0.000125      0.006172      0.003882
      8.91498      5.33999      3.55501         0.007533     -0.004401     -0.001032
      9.82110      6.23479      4.43342        -0.010432      0.007677      0.002693
     10.70174      5.34041      5.34041        -0.002080      0.003878      0.003878
     11.59099      6.23665      6.23665         0.004715      0.004203      0.004203
      8.95449      7.11832      5.31731         0.004156      0.003627      0.004400
      9.83544      8.03444      6.19870        -0.000125      0.003882      0.006172
     10.70192      7.12802      7.12802        -0.005049     -0.003265     -0.003265
     11.58640      8.01767      8.01767         0.005887     -0.001158     -0.001158
      3.56531      7.12815      3.56531        -0.004723      0.007658     -0.004723
      4.45347      8.02452      4.45347         0.004904      0.000734      0.004904
      5.37232      7.15892      5.37232         0.005974     -0.003221      0.005974
      6.20105      8.14645      6.20105         0.008116     -0.013995      0.008116
      3.55501      8.91498      5.33999        -0.001032      0.007533     -0.004401
      4.43342      9.82110      6.23479         0.002693     -0.010432      0.007677
      5.31731      8.95449      7.11832         0.004400      0.004156      0.003627
      6.19870      9.83544      8.03444         0.006172     -0.000125      0.003882
      5.33999      8.91498      3.55501        -0.004401      0.007533     -0.001032
      6.23479      9.82110      4.43342         0.007677     -0.010432      0.002693
      7.11832      8.95449      5.31731         0.003627      0.004156      0.004400
      8.03444      9.83544      6.19870         0.003882     -0.000125      0.006172
      5.34041     10.70174      5.34041         0.003878     -0.002080      0.003878
      6.23665     11.59099      6.23665         0.004203      0.004715      0.004203
      7.12802     10.70192      7.12802        -0.003265     -0.005049     -0.003265
      8.01767     11.58640      8.01767        -0.001158      0.005887     -0.001158
      8.95110      7.00744      8.95110        -0.000290     -0.008279     -0.000290
      9.78056      7.99435      9.78056        -0.007377     -0.003038     -0.007377
      7.00744      8.95110      8.95110        -0.008279     -0.000290     -0.000290
      7.99435      9.78056      9.78056        -0.003038     -0.007377     -0.007377
      8.89625      8.89625     10.67553        -0.005512     -0.005512     -0.008866
      9.79317      9.79317     11.57219        -0.002886     -0.002886     -0.002714
      8.95110      8.95110      7.00744        -0.000290     -0.000290     -0.008279
      9.78056      9.78056      7.99435        -0.007377     -0.007377     -0.003038
     10.67553      8.89625      8.89625        -0.008866     -0.005512     -0.005512
     11.57219      9.79317      9.79317        -0.002714     -0.002886     -0.002886
      8.89625     10.67553      8.89625        -0.005512     -0.008866     -0.005512
      9.79317     11.57219      9.79317        -0.002886     -0.002714     -0.002886
     10.68711     10.68711     10.68711         0.012033      0.012033      0.012033
     11.58430     11.58430     11.58430         0.016467      0.016467      0.016467
      7.57440      7.57440      7.57440        -0.033664     -0.033664     -0.033664
 -----------------------------------------------------------------------------------
    total drift:                               -0.058831     -0.059356     -0.059145


--------------------------------------------------------------------------------------------------------



  FREE ENERGIE OF THE ION-ELECTRON SYSTEM (eV)
  ---------------------------------------------------
  free  energy   TOTEN  =     -1116.27383155 eV

  energy  without entropy=    -1116.19130879  energy(sigma->0) =    -1116.24632396
 
 d Force = 0.7195715E-04[-0.967E-05, 0.154E-03]  d Energy = 0.6179078E-04 0.102E-04
 d Force = 0.1184158E+00[ 0.118E+00, 0.119E+00]  d Ewald  = 0.1184158E+00 0.141E-08


--------------------------------------------------------------------------------------------------------


    POTLOK:  cpu time   14.7009: real time   14.7256


--------------------------------------------------------------------------------------------------------




--------------------------------------------------------------------------------------------------------


  
 reached required accuracy - stopping structural energy minimisation
 writing wavefunctions
     LOOP+:  cpu time  153.4656: real time  153.9120
    4ORBIT:  cpu time    0.0000: real time    0.0000

 total amount of memory used by VASP on root node   148385. kBytes
========================================================================

   base      :      30000. kBytes
   nonlr-proj:      97698. kBytes
   fftplans  :       2864. kBytes
   grid      :       9016. kBytes
   one-center:       1100. kBytes
   HF        :        144. kBytes
   wavefun   :       7563. kBytes
 
  
  
 General timing and accounting informations for this job:
 ========================================================
  
                  Total CPU time used (sec):     6456.844
                            User time (sec):     6317.635
                          System time (sec):      139.209
                         Elapsed time (sec):     6477.111
  
                   Maximum memory used (kb):      223008.
                   Average memory used (kb):           0.
  
                          Minor page faults:        26421
                          Major page faults:            0
                 Voluntary context switches:         4352
